 Entering Gaussian System, Link 0=g16
 Input=input.com
 Output=input.log
 Initial command:
 /opt/apps/g16_avx2/tar//g16/l1.exe "/scratch/Gau-48678.inp" -scrdir="/scratch/"
 Entering Link 1 = /opt/apps/g16_avx2/tar//g16/l1.exe PID=     48679.
  
 Copyright (c) 1988-2017, Gaussian, Inc.  All Rights Reserved.
  
 This is part of the Gaussian(R) 16 program.  It is based on
 the Gaussian(R) 09 system (copyright 2009, Gaussian, Inc.),
 the Gaussian(R) 03 system (copyright 2003, Gaussian, Inc.),
 the Gaussian(R) 98 system (copyright 1998, Gaussian, Inc.),
 the Gaussian(R) 94 system (copyright 1995, Gaussian, Inc.),
 the Gaussian 92(TM) system (copyright 1992, Gaussian, Inc.),
 the Gaussian 90(TM) system (copyright 1990, Gaussian, Inc.),
 the Gaussian 88(TM) system (copyright 1988, Gaussian, Inc.),
 the Gaussian 86(TM) system (copyright 1986, Carnegie Mellon
 University), and the Gaussian 82(TM) system (copyright 1983,
 Carnegie Mellon University). Gaussian is a federally registered
 trademark of Gaussian, Inc.
  
 This software contains proprietary and confidential information,
 including trade secrets, belonging to Gaussian, Inc.
  
 This software is provided under written license and may be
 used, copied, transmitted, or stored only in accord with that
 written license.
  
 The following legend is applicable only to US Government
 contracts under FAR:
  
                    RESTRICTED RIGHTS LEGEND
  
 Use, reproduction and disclosure by the US Government is
 subject to restrictions as set forth in subparagraphs (a)
 and (c) of the Commercial Computer Software - Restricted
 Rights clause in FAR 52.227-19.
  
 Gaussian, Inc.
 340 Quinnipiac St., Bldg. 40, Wallingford CT 06492
  
  
 ---------------------------------------------------------------
 Warning -- This program may not be used in any manner that
 competes with the business of Gaussian, Inc. or will provide
 assistance to any competitor of Gaussian, Inc.  The licensee
 of this program is prohibited from giving any competitor of
 Gaussian, Inc. access to this program.  By using this program,
 the user acknowledges that Gaussian, Inc. is engaged in the
 business of creating and licensing software in the field of
 computational chemistry and represents and warrants to the
 licensee that it is not a competitor of Gaussian, Inc. and that
 it will not use this program in any manner prohibited above.
 ---------------------------------------------------------------
  

 Cite this work as:
 Gaussian 16, Revision B.01,
 M. J. Frisch, G. W. Trucks, H. B. Schlegel, G. E. Scuseria, 
 M. A. Robb, J. R. Cheeseman, G. Scalmani, V. Barone, 
 G. A. Petersson, H. Nakatsuji, X. Li, M. Caricato, A. V. Marenich, 
 J. Bloino, B. G. Janesko, R. Gomperts, B. Mennucci, H. P. Hratchian, 
 J. V. Ortiz, A. F. Izmaylov, J. L. Sonnenberg, D. Williams-Young, 
 F. Ding, F. Lipparini, F. Egidi, J. Goings, B. Peng, A. Petrone, 
 T. Henderson, D. Ranasinghe, V. G. Zakrzewski, J. Gao, N. Rega, 
 G. Zheng, W. Liang, M. Hada, M. Ehara, K. Toyota, R. Fukuda, 
 J. Hasegawa, M. Ishida, T. Nakajima, Y. Honda, O. Kitao, H. Nakai, 
 T. Vreven, K. Throssell, J. A. Montgomery, Jr., J. E. Peralta, 
 F. Ogliaro, M. J. Bearpark, J. J. Heyd, E. N. Brothers, K. N. Kudin, 
 V. N. Staroverov, T. A. Keith, R. Kobayashi, J. Normand, 
 K. Raghavachari, A. P. Rendell, J. C. Burant, S. S. Iyengar, 
 J. Tomasi, M. Cossi, J. M. Millam, M. Klene, C. Adamo, R. Cammi, 
 J. W. Ochterski, R. L. Martin, K. Morokuma, O. Farkas, 
 J. B. Foresman, and D. J. Fox, Gaussian, Inc., Wallingford CT, 2016.
 
 ******************************************
 Gaussian 16:  ES64L-G16RevB.01 20-Dec-2017
                14-Feb-2025 
 ******************************************
 %nprocshared=16
 Will use up to   16 processors via shared memory.
 %mem=60GB
 ----------------------------------------------------------------------
 #P PBE1PBE/def2TZVP opt freq EmpiricalDispersion=GD3 Int=(grid=99590) 
 scrf=(iefpcm, solvent=water)
 ----------------------------------------------------------------------
 1/18=20,19=15,26=6,38=1/1,3;
 2/9=110,12=2,17=6,18=5,40=1/2;
 3/5=44,7=101,11=2,25=1,30=1,70=2201,71=1,72=1,74=-13,75=99590,124=31/1,2,3;
 4//1;
 5/5=2,38=5,53=1/2;
 6/7=2,8=2,9=2,10=2,28=1/1;
 7//1,2,3,16;
 1/18=20,19=15,26=6/3(2);
 2/9=110/2;
 99//99;
 2/9=110/2;
 3/5=44,7=101,11=2,25=1,30=1,70=2205,71=1,72=1,74=-13,75=99590,124=31/1,2,3;
 4/5=5,16=3,69=1/1;
 5/5=2,38=5,53=1/2;
 7//1,2,3,16;
 1/18=20,19=15,26=6/3(-5);
 2/9=110/2;
 6/7=2,8=2,9=2,10=2,19=2,28=1/1;
 99/9=1/99;
 Leave Link    1 at Fri Feb 14 12:02:14 2025, MaxMem=  8053063680 cpu:               0.3 elap:               0.1
 (Enter /opt/apps/g16_avx2/tar//g16/l101.exe)
 ------------------------
 x=chf2 lg+ester reactant
 ------------------------
 Symbolic Z-matrix:
 Charge =  0 Multiplicity = 1
 O                     0.73523  -0.16783  -3.08985 
 C                     1.19232   0.83369  -2.48026 
 C                     2.46011   1.5379   -2.99833 
 O                     0.53451   1.31786  -1.30648 
 C                    -0.53677   0.7228   -0.86871 
 C                    -0.42797  -0.32773   0.05242 
 C                    -1.79925   1.13248  -1.3184 
 C                    -1.58166  -0.96857   0.52387 
 C                    -2.95293   0.49164  -0.84695 
 C                    -2.84414  -0.55888   0.07418 
 F                     0.78821  -0.72239   0.48561 
 F                    -1.90406   2.14448  -2.20574 
 F                    -1.47685  -1.98056   1.41121 
 F                    -4.16911   0.88631  -1.28015 
 F                    -3.95551  -1.17621   0.52834 
 F                     3.54962   0.97799  -2.4309 
 H                     2.41996   2.57666  -2.74481 
 F                     2.53263   1.40457  -4.33977 
 
 ITRead=  0  0  0  0  0  0  0  0  0  0  0  0  0  0  0  0  0  0
 MicOpt= -1 -1 -1 -1 -1 -1 -1 -1 -1 -1 -1 -1 -1 -1 -1 -1 -1 -1
 NAtoms=     18 NQM=       18 NQMF=       0 NMMI=      0 NMMIF=      0
                NMic=       0 NMicF=      0.
                    Isotopes and Nuclear Properties:
 (Nuclear quadrupole moments (NQMom) in fm**2, nuclear magnetic moments (NMagM)
  in nuclear magnetons)

  Atom         1           2           3           4           5           6           7           8           9          10
 IAtWgt=          16          12          12          16          12          12          12          12          12          12
 AtmWgt=  15.9949146  12.0000000  12.0000000  15.9949146  12.0000000  12.0000000  12.0000000  12.0000000  12.0000000  12.0000000
 NucSpn=           0           0           0           0           0           0           0           0           0           0
 AtZEff=  -0.0000000  -0.0000000  -0.0000000  -0.0000000  -0.0000000  -0.0000000  -0.0000000  -0.0000000  -0.0000000  -0.0000000
 NQMom=    0.0000000   0.0000000   0.0000000   0.0000000   0.0000000   0.0000000   0.0000000   0.0000000   0.0000000   0.0000000
 NMagM=    0.0000000   0.0000000   0.0000000   0.0000000   0.0000000   0.0000000   0.0000000   0.0000000   0.0000000   0.0000000
 AtZNuc=   8.0000000   6.0000000   6.0000000   8.0000000   6.0000000   6.0000000   6.0000000   6.0000000   6.0000000   6.0000000

  Atom        11          12          13          14          15          16          17          18
 IAtWgt=          19          19          19          19          19          19           1          19
 AtmWgt=  18.9984032  18.9984032  18.9984032  18.9984032  18.9984032  18.9984032   1.0078250  18.9984032
 NucSpn=           1           1           1           1           1           1           1           1
 AtZEff=  -0.0000000  -0.0000000  -0.0000000  -0.0000000  -0.0000000  -0.0000000  -0.0000000  -0.0000000
 NQMom=    0.0000000   0.0000000   0.0000000   0.0000000   0.0000000   0.0000000   0.0000000   0.0000000
 NMagM=    2.6288670   2.6288670   2.6288670   2.6288670   2.6288670   2.6288670   2.7928460   2.6288670
 AtZNuc=   9.0000000   9.0000000   9.0000000   9.0000000   9.0000000   9.0000000   1.0000000   9.0000000
 Leave Link  101 at Fri Feb 14 12:02:14 2025, MaxMem=  8053063680 cpu:               1.5 elap:               0.1
 (Enter /opt/apps/g16_avx2/tar//g16/l103.exe)

 GradGradGradGradGradGradGradGradGradGradGradGradGradGradGradGradGradGrad
 Berny optimization.
 Initialization pass.
                           ----------------------------
                           !    Initial Parameters    !
                           ! (Angstroms and Degrees)  !
 --------------------------                            --------------------------
 ! Name  Definition              Value          Derivative Info.                !
 --------------------------------------------------------------------------------
 ! R1    R(1,2)                  1.2584         estimate D2E/DX2                !
 ! R2    R(2,3)                  1.54           estimate D2E/DX2                !
 ! R3    R(2,4)                  1.43           estimate D2E/DX2                !
 ! R4    R(3,16)                 1.35           estimate D2E/DX2                !
 ! R5    R(3,17)                 1.07           estimate D2E/DX2                !
 ! R6    R(3,18)                 1.35           estimate D2E/DX2                !
 ! R7    R(4,5)                  1.3013         estimate D2E/DX2                !
 ! R8    R(5,6)                  1.4014         estimate D2E/DX2                !
 ! R9    R(5,7)                  1.4014         estimate D2E/DX2                !
 ! R10   R(6,8)                  1.4014         estimate D2E/DX2                !
 ! R11   R(6,11)                 1.35           estimate D2E/DX2                !
 ! R12   R(7,9)                  1.4014         estimate D2E/DX2                !
 ! R13   R(7,12)                 1.35           estimate D2E/DX2                !
 ! R14   R(8,10)                 1.4014         estimate D2E/DX2                !
 ! R15   R(8,13)                 1.35           estimate D2E/DX2                !
 ! R16   R(9,10)                 1.4014         estimate D2E/DX2                !
 ! R17   R(9,14)                 1.35           estimate D2E/DX2                !
 ! R18   R(10,15)                1.35           estimate D2E/DX2                !
 ! A1    A(1,2,3)              120.0            estimate D2E/DX2                !
 ! A2    A(1,2,4)              120.0            estimate D2E/DX2                !
 ! A3    A(3,2,4)              120.0            estimate D2E/DX2                !
 ! A4    A(2,3,16)             109.4712         estimate D2E/DX2                !
 ! A5    A(2,3,17)             109.4712         estimate D2E/DX2                !
 ! A6    A(2,3,18)             109.4712         estimate D2E/DX2                !
 ! A7    A(16,3,17)            109.4712         estimate D2E/DX2                !
 ! A8    A(16,3,18)            109.4712         estimate D2E/DX2                !
 ! A9    A(17,3,18)            109.4712         estimate D2E/DX2                !
 ! A10   A(2,4,5)              120.0            estimate D2E/DX2                !
 ! A11   A(4,5,6)              120.0            estimate D2E/DX2                !
 ! A12   A(4,5,7)              120.0            estimate D2E/DX2                !
 ! A13   A(6,5,7)              120.0            estimate D2E/DX2                !
 ! A14   A(5,6,8)              120.0            estimate D2E/DX2                !
 ! A15   A(5,6,11)             120.0            estimate D2E/DX2                !
 ! A16   A(8,6,11)             120.0            estimate D2E/DX2                !
 ! A17   A(5,7,9)              120.0            estimate D2E/DX2                !
 ! A18   A(5,7,12)             120.0            estimate D2E/DX2                !
 ! A19   A(9,7,12)             120.0            estimate D2E/DX2                !
 ! A20   A(6,8,10)             120.0            estimate D2E/DX2                !
 ! A21   A(6,8,13)             120.0            estimate D2E/DX2                !
 ! A22   A(10,8,13)            120.0            estimate D2E/DX2                !
 ! A23   A(7,9,10)             120.0            estimate D2E/DX2                !
 ! A24   A(7,9,14)             120.0            estimate D2E/DX2                !
 ! A25   A(10,9,14)            120.0            estimate D2E/DX2                !
 ! A26   A(8,10,9)             120.0            estimate D2E/DX2                !
 ! A27   A(8,10,15)            120.0            estimate D2E/DX2                !
 ! A28   A(9,10,15)            120.0            estimate D2E/DX2                !
 ! D1    D(1,2,3,16)           -90.0            estimate D2E/DX2                !
 ! D2    D(1,2,3,17)           150.0            estimate D2E/DX2                !
 ! D3    D(1,2,3,18)            30.0            estimate D2E/DX2                !
 ! D4    D(4,2,3,16)            90.0            estimate D2E/DX2                !
 ! D5    D(4,2,3,17)           -30.0            estimate D2E/DX2                !
 ! D6    D(4,2,3,18)          -150.0            estimate D2E/DX2                !
 ! D7    D(1,2,4,5)              0.0001         estimate D2E/DX2                !
 ! D8    D(3,2,4,5)           -179.9999         estimate D2E/DX2                !
 ! D9    D(2,4,5,6)             90.0            estimate D2E/DX2                !
 ! D10   D(2,4,5,7)            -89.9999         estimate D2E/DX2                !
 ! D11   D(4,5,6,8)            179.9998         estimate D2E/DX2                !
 ! D12   D(4,5,6,11)            -0.0001         estimate D2E/DX2                !
 ! D13   D(7,5,6,8)             -0.0002         estimate D2E/DX2                !
 ! D14   D(7,5,6,11)           179.9998         estimate D2E/DX2                !
 ! D15   D(4,5,7,9)           -180.0            estimate D2E/DX2                !
 ! D16   D(4,5,7,12)            -0.0001         estimate D2E/DX2                !
 ! D17   D(6,5,7,9)              0.0001         estimate D2E/DX2                !
 ! D18   D(6,5,7,12)           180.0            estimate D2E/DX2                !
 ! D19   D(5,6,8,10)             0.0002         estimate D2E/DX2                !
 ! D20   D(5,6,8,13)          -179.9998         estimate D2E/DX2                !
 ! D21   D(11,6,8,10)         -179.9999         estimate D2E/DX2                !
 ! D22   D(11,6,8,13)            0.0002         estimate D2E/DX2                !
 ! D23   D(5,7,9,10)             0.0001         estimate D2E/DX2                !
 ! D24   D(5,7,9,14)           180.0            estimate D2E/DX2                !
 ! D25   D(12,7,9,10)         -179.9998         estimate D2E/DX2                !
 ! D26   D(12,7,9,14)            0.0001         estimate D2E/DX2                !
 ! D27   D(6,8,10,9)             0.0            estimate D2E/DX2                !
 ! D28   D(6,8,10,15)         -179.9999         estimate D2E/DX2                !
 ! D29   D(13,8,10,9)         -180.0            estimate D2E/DX2                !
 ! D30   D(13,8,10,15)           0.0001         estimate D2E/DX2                !
 ! D31   D(7,9,10,8)            -0.0002         estimate D2E/DX2                !
 ! D32   D(7,9,10,15)          179.9998         estimate D2E/DX2                !
 ! D33   D(14,9,10,8)          180.0            estimate D2E/DX2                !
 ! D34   D(14,9,10,15)          -0.0001         estimate D2E/DX2                !
 --------------------------------------------------------------------------------
 Trust Radius=3.00D-01 FncErr=5.00D-06 GrdErr=5.00D-06 EigMax=2.50D+02 EigMin=1.00D-04
 Number of steps in this run=     90 maximum allowed number of steps=    108.
 GradGradGradGradGradGradGradGradGradGradGradGradGradGradGradGradGradGrad

 Leave Link  103 at Fri Feb 14 12:02:14 2025, MaxMem=  8053063680 cpu:               0.1 elap:               0.1
 (Enter /opt/apps/g16_avx2/tar//g16/l202.exe)
                          Input orientation:                          
 ---------------------------------------------------------------------
 Center     Atomic      Atomic             Coordinates (Angstroms)
 Number     Number       Type             X           Y           Z
 ---------------------------------------------------------------------
      1          8           0        0.735232   -0.167831   -3.089851
      2          6           0        1.192322    0.833687   -2.480260
      3          6           0        2.460109    1.537903   -2.998329
      4          8           0        0.534512    1.317860   -1.306479
      5          6           0       -0.536767    0.722795   -0.868710
      6          6           0       -0.427970   -0.327731    0.052420
      7          6           0       -1.799249    1.132482   -1.318397
      8          6           0       -1.581656   -0.968567    0.523866
      9          6           0       -2.952934    0.491645   -0.846953
     10          6           0       -2.844137   -0.558879    0.074180
     11          9           0        0.788207   -0.722394    0.485610
     12          9           0       -1.904056    2.144478   -2.205741
     13          9           0       -1.476849   -1.980560    1.411214
     14          9           0       -4.169111    0.886306   -1.280145
     15          9           0       -3.955508   -1.176210    0.528336
     16          9           0        3.549617    0.977992   -2.430904
     17          1           0        2.419959    2.576660   -2.744808
     18          9           0        2.532628    1.404566   -4.339770
 ---------------------------------------------------------------------
                    Distance matrix (angstroms):
                    1          2          3          4          5
     1  O    0.000000
     2  C    1.258400   0.000000
     3  C    2.427572   1.540000   0.000000
     4  O    2.329803   1.430000   2.572683   0.000000
     5  C    2.710105   2.366250   3.765760   1.301300   0.000000
     6  C    3.354471   3.223151   4.596592   2.341142   1.401400
     7  C    3.354469   3.223151   4.596593   2.341142   1.401400
     8  C    4.366703   4.468539   5.918117   3.613319   2.427296
     9  C    4.366700   4.468538   5.918117   3.613319   2.427296
    10  C    4.793318   4.975682   6.478567   4.104100   2.802800
    11  F    3.618601   3.373586   4.476833   2.727376   2.382921
    12  F    3.618600   3.373587   4.476836   2.727376   2.382921
    13  F    5.332811   5.494363   6.879193   4.723452   3.659226
    14  F    5.332806   5.494361   6.879193   4.723452   3.659226
    15  F    6.009256   6.292177   7.807939   5.454100   4.152800
    16  F    3.109323   2.362224   1.350000   3.235846   4.382249
    17  H    3.238764   2.148263   1.070000   2.684824   3.962169
    18  F    2.695434   2.362224   1.350000   3.633296   4.683402
                    6          7          8          9         10
     6  C    0.000000
     7  C    2.427296   0.000000
     8  C    1.401400   2.802800   0.000000
     9  C    2.802800   1.401400   2.427296   0.000000
    10  C    2.427296   2.427296   1.401400   1.401400   0.000000
    11  F    1.350000   3.659226   2.382921   4.152800   3.659226
    12  F    3.659226   1.350000   4.152800   2.382921   3.659226
    13  F    2.382921   4.152800   1.350000   3.659226   2.382921
    14  F    4.152800   2.382921   3.659226   1.350000   2.382921
    15  F    3.659226   3.659226   2.382921   2.382921   1.350000
    16  F    4.867546   5.465520   6.232954   6.710336   7.036868
    17  H    4.936666   4.682095   6.266241   6.067711   6.744554
    18  F    5.572910   5.288467   6.798091   6.566932   7.228256
                   11         12         13         14         15
    11  F    0.000000
    12  F    4.765565   0.000000
    13  F    2.751400   5.502800   0.000000
    14  F    5.502800   2.751400   4.765565   0.000000
    15  F    4.765565   4.765565   2.751400   2.751400   0.000000
    16  F    4.361508   5.581571   6.984287   7.804576   8.350125
    17  H    4.897139   4.378867   7.295607   6.958331   8.089752
    18  F    5.554391   4.978525   7.785165   7.385337   8.512037
                   16         17         18
    16  F    0.000000
    17  H    1.982524   0.000000
    18  F    2.204541   1.982524   0.000000
 Stoichiometry    C8HF7O2
 Framework group  C1[X(C8HF7O2)]
 Deg. of freedom    48
 Full point group                 C1      NOp   1
 Largest Abelian subgroup         C1      NOp   1
 Largest concise Abelian subgroup C1      NOp   1
                         Standard orientation:                         
 ---------------------------------------------------------------------
 Center     Atomic      Atomic             Coordinates (Angstroms)
 Number     Number       Type             X           Y           Z
 ---------------------------------------------------------------------
      1          8           0        1.843165   -0.146607    1.397247
      2          6           0        2.184901   -0.117168    0.186495
      3          6           0        3.676853   -0.152349   -0.193559
      4          8           0        1.187853   -0.051048   -0.836453
      5          6           0       -0.072847   -0.021318   -0.515308
      6          6           0       -0.712791    1.207040   -0.301931
      7          6           0       -0.790579   -1.217660   -0.382836
      8          6           0       -2.070468    1.239057    0.043915
      9          6           0       -2.148256   -1.185643   -0.036988
     10          6           0       -2.788201    0.042715    0.176386
     11          9           0       -0.021382    2.359502   -0.429540
     12          9           0       -0.174107   -2.400965   -0.588388
     13          9           0       -2.686942    2.422362    0.249463
     14          9           0       -2.839664   -2.338106    0.090625
     15          9           0       -4.096082    0.073557    0.509545
     16          9           0        4.153602    1.108801   -0.262187
     17          1           0        3.791517   -0.629238   -1.144521
     18          9           0        4.363316   -0.842658    0.741718
 ---------------------------------------------------------------------
 Rotational constants (GHZ):           0.8170520           0.2655807           0.2138576
 Leave Link  202 at Fri Feb 14 12:02:14 2025, MaxMem=  8053063680 cpu:               0.1 elap:               0.1
 (Enter /opt/apps/g16_avx2/tar//g16/l301.exe)
 Standard basis: def2TZVP (5D, 7F)
 Ernie: Thresh=  0.10000D-02 Tol=  0.10000D-05 Strict=F.
 There are   618 symmetry adapted cartesian basis functions of A   symmetry.
 There are   533 symmetry adapted basis functions of A   symmetry.
   533 basis functions,   875 primitive gaussians,   618 cartesian basis functions
    64 alpha electrons       64 beta electrons
       nuclear repulsion energy      1274.5602422849 Hartrees.
 IExCor= 1009 DFT=T Ex+Corr=PBE1PBE ExCW=0 ScaHFX=  0.250000
 ScaDFX=  0.750000  0.750000  1.000000  1.000000 ScalE2=  1.000000  1.000000
 IRadAn=  99590 IRanWt=     -1 IRanGd=            0 ICorTp=0 IEmpDi=131
 NAtoms=   18 NActive=   18 NUniq=   18 SFac= 1.00D+00 NAtFMM=   60 NAOKFM=F Big=F
 Integral buffers will be    131072 words long.
 Raffenetti 2 integral format.
 Two-electron integral symmetry is turned on.
 R6Disp:  Grimme-D3 Dispersion energy=       -0.0093998669 Hartrees.
 Nuclear repulsion after empirical dispersion term =     1274.5508424180 Hartrees.
 ------------------------------------------------------------------------------
 Polarizable Continuum Model (PCM)
 =================================
 Model                : PCM.
 Atomic radii         : UFF (Universal Force Field).
 Polarization charges : Total charges.
 Charge compensation  : None.
 Solution method      : On-the-fly selection.
 Cavity type          : Scaled VdW (van der Waals Surface) (Alpha=1.100).
 Cavity algorithm     : GePol (No added spheres)
                        Default sphere list used, NSphG=   18.
                        Lebedev-Laikov grids with approx.  5.0 points / Ang**2.
                        Smoothing algorithm: York/Karplus (Gamma=1.0000).
                        Polarization charges: spherical gaussians, with
                                              point-specific exponents (IZeta= 3).
                        Self-potential: point-specific (ISelfS= 7).
                        Self-field    : sphere-specific E.n sum rule (ISelfD= 2).
 1st derivatives      : Analytical E(r).r(x)/FMM algorithm (CHGder, D1EAlg=3).
                        Cavity 1st derivative terms included.
 Solvent              : Water, Eps=  78.355300 Eps(inf)=   1.777849
 ------------------------------------------------------------------------------
 Spheres list:
 ISph  on   Nord     Re0    Alpha      Xe            Ye            Ze
    1   O      1    1.7500  1.100      1.843165     -0.146607      1.397247
    2   C      2    1.9255  1.100      2.184901     -0.117168      0.186495
    3   C      3    1.9255  1.100      3.676853     -0.152349     -0.193559
    4   O      4    1.7500  1.100      1.187853     -0.051048     -0.836453
    5   C      5    1.9255  1.100     -0.072847     -0.021318     -0.515308
    6   C      6    1.9255  1.100     -0.712791      1.207040     -0.301931
    7   C      7    1.9255  1.100     -0.790579     -1.217660     -0.382836
    8   C      8    1.9255  1.100     -2.070468      1.239057      0.043915
    9   C      9    1.9255  1.100     -2.148256     -1.185643     -0.036988
   10   C     10    1.9255  1.100     -2.788201      0.042715      0.176386
   11   F     11    1.6820  1.100     -0.021382      2.359502     -0.429540
   12   F     12    1.6820  1.100     -0.174107     -2.400965     -0.588388
   13   F     13    1.6820  1.100     -2.686942      2.422362      0.249463
   14   F     14    1.6820  1.100     -2.839664     -2.338106      0.090625
   15   F     15    1.6820  1.100     -4.096082      0.073557      0.509545
   16   F     16    1.6820  1.100      4.153602      1.108801     -0.262187
   17   H     17    1.4430  1.100      3.791517     -0.629238     -1.144521
   18   F     18    1.6820  1.100      4.363316     -0.842658      0.741718
 ------------------------------------------------------------------------------
 GePol: Number of generator spheres                  =      18
 GePol: Total number of spheres                      =      18
 GePol: Number of exposed spheres                    =      18 (100.00%)
 GePol: Number of points                             =    2020
 GePol: Average weight of points                     =       0.13
 GePol: Minimum weight of points                     =   0.28D-11
 GePol: Maximum weight of points                     =    0.20577
 GePol: Number of points with low weight             =      71
 GePol: Fraction of low-weight points (<1% of avg)   =       3.51%
 GePol: Cavity surface area                          =    252.790 Ang**2
 GePol: Cavity volume                                =    253.231 Ang**3
 Leave Link  301 at Fri Feb 14 12:02:14 2025, MaxMem=  8053063680 cpu:               0.4 elap:               0.1
 (Enter /opt/apps/g16_avx2/tar//g16/l302.exe)
 NPDir=0 NMtPBC=     1 NCelOv=     1 NCel=       1 NClECP=     1 NCelD=      1
         NCelK=      1 NCelE2=     1 NClLst=     1 CellRange=     0.0.
 One-electron integrals computed using PRISM.
 One-electron integral symmetry used in STVInt
   1 Symmetry operations used in ECPInt.
 ECPInt:  NShTT=   18336 NPrTT=   60408 LenC2=   15790 LenP2D=   36922.
 LDataN:  DoStor=T MaxTD1= 6 Len=  172
 NBasis=   533 RedAO= T EigKep=  1.80D-05  NBF=   533
 NBsUse=   533 1.00D-06 EigRej= -1.00D+00 NBFU=   533
 Precomputing XC quadrature grid using
 IXCGrd= 4 IRadAn=       99590 IRanWt=          -1 IRanGd=           0 AccXCQ= 0.00D+00.
 Generated NRdTot=       0 NPtTot=           0 NUsed=           0 NTot=          32
 NSgBfM=   606   606   606   606   606 MxSgAt=    18 MxSgA2=    18.
 Leave Link  302 at Fri Feb 14 12:02:14 2025, MaxMem=  8053063680 cpu:               3.2 elap:               0.2
 (Enter /opt/apps/g16_avx2/tar//g16/l303.exe)
 DipDrv:  MaxL=1.
 Leave Link  303 at Fri Feb 14 12:02:15 2025, MaxMem=  8053063680 cpu:               0.5 elap:               0.1
 (Enter /opt/apps/g16_avx2/tar//g16/l401.exe)
 ExpMin= 9.52D-02 ExpMax= 3.55D+04 ExpMxC= 1.21D+03 IAcc=4 IRadAn=    199590 AccDes= 0.00D+00
 Harris functional with IExCor= 1009 and IRadAn=  199590 diagonalized for initial guess.
 HarFok:  IExCor= 1009 AccDes= 0.00D+00 IRadAn=    199590 IDoV= 1 UseB2=F ITyADJ=14
 ICtDFT=  3500011 ScaDFX=  1.000000  1.000000  1.000000  1.000000
 FoFCou: FMM=F IPFlag=           0 FMFlag=      100000 FMFlg1=           0
         NFxFlg=           0 DoJE=T BraDBF=F KetDBF=T FulRan=T
         wScrn=  0.000000 ICntrl=       500 IOpCl=  0 I1Cent=   200000004 NGrid=           0
         NMat0=    1 NMatS0=      1 NMatT0=    0 NMatD0=    1 NMtDS0=    0 NMtDT0=    0
 Petite list used in FoFCou.
 Harris En= -1154.06086162765    
 JPrj=0 DoOrth=F DoCkMO=F.
 Leave Link  401 at Fri Feb 14 12:02:16 2025, MaxMem=  8053063680 cpu:              21.0 elap:               1.4
 (Enter /opt/apps/g16_avx2/tar//g16/l502.exe)
 Integral symmetry usage will be decided dynamically.
 Closed shell SCF:
 Using DIIS extrapolation, IDIIS=  1040.
 NGot=  8053063680 LenX=  8052284788 LenY=  8051902246
 Requested convergence on RMS density matrix=1.00D-08 within 128 cycles.
 Requested convergence on MAX density matrix=1.00D-06.
 Requested convergence on             energy=1.00D-06.
 No special actions if energy rises.
 Fock matrices will be formed incrementally for  20 cycles.

 Cycle   1  Pass 1  IDiag  1:
 FoFJK:  IHMeth= 1 ICntrl=       0 DoSepK=F KAlg= 0 I1Cent=           0 FoldK=F
 IRaf= 800000000 NMat=       1 IRICut=       1 DoRegI=T DoRafI=F ISym2E= 0 IDoP0=0 IntGTp=1.
 FoFCou: FMM=F IPFlag=           0 FMFlag=      100000 FMFlg1=           0
         NFxFlg=           0 DoJE=F BraDBF=F KetDBF=F FulRan=T
         wScrn=  0.000000 ICntrl=         0 IOpCl=  0 I1Cent=           0 NGrid=           0
         NMat0=    1 NMatS0=      1 NMatT0=    0 NMatD0=    1 NMtDS0=    0 NMtDT0=    0
 Symmetry not used in FoFCou.
 Inv3:  Mode=1 IEnd=    12241200.
 Iteration    1 A*A^-1 deviation from unit magnitude is 3.11D-15 for     78.
 Iteration    1 A*A^-1 deviation from orthogonality  is 1.67D-15 for   1720   1136.
 Iteration    1 A^-1*A deviation from unit magnitude is 3.11D-15 for     78.
 Iteration    1 A^-1*A deviation from orthogonality  is 1.53D-15 for   2003    100.
 E= -1153.90916856092    
 DIIS: error= 1.31D-02 at cycle   1 NSaved=   1.
 NSaved= 1 IEnMin= 1 EnMin= -1153.90916856092     IErMin= 1 ErrMin= 1.31D-02
 ErrMax= 1.31D-02  0.00D+00 EMaxC= 1.00D-01 BMatC= 2.45D-01 BMatP= 2.45D-01
 IDIUse=3 WtCom= 8.69D-01 WtEn= 1.31D-01
 Coeff-Com:  0.100D+01
 Coeff-En:   0.100D+01
 Coeff:      0.100D+01
 Gap=     0.176 Goal=   None    Shift=    0.000
 GapD=    0.176 DampG=1.000 DampE=0.500 DampFc=0.5000 IDamp=-1.
 Damping current iteration by 5.00D-01
 RMSDP=1.38D-03 MaxDP=1.18D-01              OVMax= 2.68D-01

 Cycle   2  Pass 1  IDiag  1:
 RMSU=  6.91D-04    CP:  9.95D-01
 E= -1153.92841329838     Delta-E=       -0.019244737455 Rises=F Damp=T
 DIIS: error= 7.85D-03 at cycle   2 NSaved=   2.
 NSaved= 2 IEnMin= 2 EnMin= -1153.92841329838     IErMin= 2 ErrMin= 7.85D-03
 ErrMax= 7.85D-03  0.00D+00 EMaxC= 1.00D-01 BMatC= 5.53D-02 BMatP= 2.45D-01
 IDIUse=3 WtCom= 9.22D-01 WtEn= 7.85D-02
 Coeff-Com:  0.221D+00 0.779D+00
 Coeff-En:   0.435D+00 0.565D+00
 Coeff:      0.238D+00 0.762D+00
 Gap=     0.259 Goal=   None    Shift=    0.000
 RMSDP=6.43D-04 MaxDP=4.19D-02 DE=-1.92D-02 OVMax= 1.55D-01

 Cycle   3  Pass 1  IDiag  1:
 RMSU=  5.98D-04    CP:  9.85D-01  6.84D-01
 E= -1154.02351309639     Delta-E=       -0.095099798012 Rises=F Damp=F
 DIIS: error= 6.78D-03 at cycle   3 NSaved=   3.
 NSaved= 3 IEnMin= 3 EnMin= -1154.02351309639     IErMin= 3 ErrMin= 6.78D-03
 ErrMax= 6.78D-03  0.00D+00 EMaxC= 1.00D-01 BMatC= 3.65D-02 BMatP= 5.53D-02
 IDIUse=3 WtCom= 9.32D-01 WtEn= 6.78D-02
 Coeff-Com: -0.235D-01 0.444D+00 0.579D+00
 Coeff-En:   0.000D+00 0.000D+00 0.100D+01
 Coeff:     -0.219D-01 0.414D+00 0.608D+00
 Gap=     0.215 Goal=   None    Shift=    0.000
 RMSDP=3.36D-04 MaxDP=2.87D-02 DE=-9.51D-02 OVMax= 8.81D-02

 Cycle   4  Pass 1  IDiag  1:
 RMSU=  3.13D-04    CP:  9.81D-01  8.28D-01  8.99D-01
 E= -1154.04528677584     Delta-E=       -0.021773679450 Rises=F Damp=F
 DIIS: error= 2.09D-03 at cycle   4 NSaved=   4.
 NSaved= 4 IEnMin= 4 EnMin= -1154.04528677584     IErMin= 4 ErrMin= 2.09D-03
 ErrMax= 2.09D-03  0.00D+00 EMaxC= 1.00D-01 BMatC= 7.78D-03 BMatP= 3.65D-02
 IDIUse=3 WtCom= 9.79D-01 WtEn= 2.09D-02
 Coeff-Com: -0.380D-01 0.162D+00 0.375D+00 0.501D+00
 Coeff-En:   0.000D+00 0.000D+00 0.179D+00 0.821D+00
 Coeff:     -0.372D-01 0.158D+00 0.371D+00 0.508D+00
 Gap=     0.210 Goal=   None    Shift=    0.000
 RMSDP=1.20D-04 MaxDP=9.81D-03 DE=-2.18D-02 OVMax= 2.88D-02

 Cycle   5  Pass 1  IDiag  1:
 RMSU=  7.28D-05    CP:  9.81D-01  8.06D-01  9.59D-01  7.22D-01
 E= -1154.05046335736     Delta-E=       -0.005176581519 Rises=F Damp=F
 DIIS: error= 5.80D-04 at cycle   5 NSaved=   5.
 NSaved= 5 IEnMin= 5 EnMin= -1154.05046335736     IErMin= 5 ErrMin= 5.80D-04
 ErrMax= 5.80D-04  0.00D+00 EMaxC= 1.00D-01 BMatC= 4.47D-04 BMatP= 7.78D-03
 IDIUse=3 WtCom= 9.94D-01 WtEn= 5.80D-03
 Coeff-Com: -0.150D-01 0.326D-01 0.120D+00 0.267D+00 0.595D+00
 Coeff-En:   0.000D+00 0.000D+00 0.000D+00 0.983D-02 0.990D+00
 Coeff:     -0.149D-01 0.324D-01 0.119D+00 0.266D+00 0.597D+00
 Gap=     0.210 Goal=   None    Shift=    0.000
 RMSDP=3.34D-05 MaxDP=1.94D-03 DE=-5.18D-03 OVMax= 5.66D-03

 Cycle   6  Pass 1  IDiag  1:
 RMSU=  1.42D-05    CP:  9.81D-01  8.14D-01  9.43D-01  7.27D-01  6.18D-01
 E= -1154.05081032084     Delta-E=       -0.000346963483 Rises=F Damp=F
 DIIS: error= 1.10D-04 at cycle   6 NSaved=   6.
 NSaved= 6 IEnMin= 6 EnMin= -1154.05081032084     IErMin= 6 ErrMin= 1.10D-04
 ErrMax= 1.10D-04  0.00D+00 EMaxC= 1.00D-01 BMatC= 1.26D-05 BMatP= 4.47D-04
 IDIUse=3 WtCom= 9.99D-01 WtEn= 1.10D-03
 Coeff-Com: -0.470D-02 0.741D-02 0.349D-01 0.886D-01 0.254D+00 0.620D+00
 Coeff-En:   0.000D+00 0.000D+00 0.000D+00 0.000D+00 0.000D+00 0.100D+01
 Coeff:     -0.470D-02 0.741D-02 0.349D-01 0.885D-01 0.254D+00 0.620D+00
 Gap=     0.210 Goal=   None    Shift=    0.000
 RMSDP=6.70D-06 MaxDP=2.91D-04 DE=-3.47D-04 OVMax= 1.42D-03

 Cycle   7  Pass 1  IDiag  1:
 RMSU=  5.11D-06    CP:  9.81D-01  8.16D-01  9.45D-01  7.26D-01  6.61D-01
                    CP:  8.21D-01
 E= -1154.05081861907     Delta-E=       -0.000008298231 Rises=F Damp=F
 DIIS: error= 4.98D-05 at cycle   7 NSaved=   7.
 NSaved= 7 IEnMin= 7 EnMin= -1154.05081861907     IErMin= 7 ErrMin= 4.98D-05
 ErrMax= 4.98D-05  0.00D+00 EMaxC= 1.00D-01 BMatC= 2.69D-06 BMatP= 1.26D-05
 IDIUse=1 WtCom= 1.00D+00 WtEn= 0.00D+00
 Coeff-Com: -0.101D-02 0.674D-03 0.659D-02 0.190D-01 0.764D-01 0.353D+00
 Coeff-Com:  0.545D+00
 Coeff:     -0.101D-02 0.674D-03 0.659D-02 0.190D-01 0.764D-01 0.353D+00
 Coeff:      0.545D+00
 Gap=     0.210 Goal=   None    Shift=    0.000
 RMSDP=2.32D-06 MaxDP=1.07D-04 DE=-8.30D-06 OVMax= 4.41D-04

 Cycle   8  Pass 1  IDiag  1:
 RMSU=  1.31D-06    CP:  9.81D-01  8.15D-01  9.45D-01  7.28D-01  6.57D-01
                    CP:  8.66D-01  6.97D-01
 E= -1154.05082060067     Delta-E=       -0.000001981600 Rises=F Damp=F
 DIIS: error= 6.83D-06 at cycle   8 NSaved=   8.
 NSaved= 8 IEnMin= 8 EnMin= -1154.05082060067     IErMin= 8 ErrMin= 6.83D-06
 ErrMax= 6.83D-06  0.00D+00 EMaxC= 1.00D-01 BMatC= 6.74D-08 BMatP= 2.69D-06
 IDIUse=1 WtCom= 1.00D+00 WtEn= 0.00D+00
 Coeff-Com:  0.966D-04-0.413D-03-0.740D-03-0.227D-02 0.210D-02 0.527D-01
 Coeff-Com:  0.154D+00 0.794D+00
 Coeff:      0.966D-04-0.413D-03-0.740D-03-0.227D-02 0.210D-02 0.527D-01
 Coeff:      0.154D+00 0.794D+00
 Gap=     0.210 Goal=   None    Shift=    0.000
 RMSDP=6.40D-07 MaxDP=3.62D-05 DE=-1.98D-06 OVMax= 8.93D-05

 Cycle   9  Pass 1  IDiag  1:
 RMSU=  4.80D-07    CP:  9.81D-01  8.15D-01  9.45D-01  7.28D-01  6.57D-01
                    CP:  8.86D-01  7.30D-01  8.89D-01
 E= -1154.05082064738     Delta-E=       -0.000000046713 Rises=F Damp=F
 DIIS: error= 3.28D-06 at cycle   9 NSaved=   9.
 NSaved= 9 IEnMin= 9 EnMin= -1154.05082064738     IErMin= 9 ErrMin= 3.28D-06
 ErrMax= 3.28D-06  0.00D+00 EMaxC= 1.00D-01 BMatC= 1.85D-08 BMatP= 6.74D-08
 IDIUse=1 WtCom= 1.00D+00 WtEn= 0.00D+00
 Coeff-Com:  0.119D-03-0.288D-03-0.756D-03-0.239D-02-0.336D-02 0.611D-02
 Coeff-Com:  0.475D-01 0.424D+00 0.529D+00
 Coeff:      0.119D-03-0.288D-03-0.756D-03-0.239D-02-0.336D-02 0.611D-02
 Coeff:      0.475D-01 0.424D+00 0.529D+00
 Gap=     0.210 Goal=   None    Shift=    0.000
 RMSDP=1.88D-07 MaxDP=1.01D-05 DE=-4.67D-08 OVMax= 2.49D-05

 Cycle  10  Pass 1  IDiag  1:
 RMSU=  1.11D-07    CP:  9.81D-01  8.15D-01  9.45D-01  7.28D-01  6.57D-01
                    CP:  8.87D-01  7.32D-01  9.46D-01  7.34D-01
 E= -1154.05082066015     Delta-E=       -0.000000012767 Rises=F Damp=F
 DIIS: error= 7.24D-07 at cycle  10 NSaved=  10.
 NSaved=10 IEnMin=10 EnMin= -1154.05082066015     IErMin=10 ErrMin= 7.24D-07
 ErrMax= 7.24D-07  0.00D+00 EMaxC= 1.00D-01 BMatC= 9.63D-10 BMatP= 1.85D-08
 IDIUse=1 WtCom= 1.00D+00 WtEn= 0.00D+00
 Coeff-Com:  0.396D-04-0.828D-04-0.184D-03-0.693D-03-0.135D-02-0.275D-02
 Coeff-Com:  0.411D-02 0.910D-01 0.204D+00 0.706D+00
 Coeff:      0.396D-04-0.828D-04-0.184D-03-0.693D-03-0.135D-02-0.275D-02
 Coeff:      0.411D-02 0.910D-01 0.204D+00 0.706D+00
 Gap=     0.210 Goal=   None    Shift=    0.000
 RMSDP=5.47D-08 MaxDP=2.39D-06 DE=-1.28D-08 OVMax= 7.97D-06

 Cycle  11  Pass 1  IDiag  1:
 RMSU=  4.26D-08    CP:  9.81D-01  8.15D-01  9.45D-01  7.28D-01  6.58D-01
                    CP:  8.86D-01  7.36D-01  9.54D-01  7.53D-01  8.69D-01
 E= -1154.05082066087     Delta-E=       -0.000000000719 Rises=F Damp=F
 DIIS: error= 2.45D-07 at cycle  11 NSaved=  11.
 NSaved=11 IEnMin=11 EnMin= -1154.05082066087     IErMin=11 ErrMin= 2.45D-07
 ErrMax= 2.45D-07  0.00D+00 EMaxC= 1.00D-01 BMatC= 1.16D-10 BMatP= 9.63D-10
 IDIUse=1 WtCom= 1.00D+00 WtEn= 0.00D+00
 Coeff-Com:  0.382D-05-0.226D-05 0.174D-04 0.280D-05-0.147D-03-0.206D-02
 Coeff-Com: -0.490D-02-0.212D-01 0.521D-02 0.291D+00 0.732D+00
 Coeff:      0.382D-05-0.226D-05 0.174D-04 0.280D-05-0.147D-03-0.206D-02
 Coeff:     -0.490D-02-0.212D-01 0.521D-02 0.291D+00 0.732D+00
 Gap=     0.210 Goal=   None    Shift=    0.000
 RMSDP=2.37D-08 MaxDP=1.17D-06 DE=-7.19D-10 OVMax= 3.77D-06

 Cycle  12  Pass 1  IDiag  1:
 RMSU=  1.11D-08    CP:  9.81D-01  8.15D-01  9.45D-01  7.28D-01  6.58D-01
                    CP:  8.87D-01  7.35D-01  9.57D-01  7.76D-01  9.63D-01
                    CP:  8.67D-01
 E= -1154.05082066096     Delta-E=       -0.000000000093 Rises=F Damp=F
 DIIS: error= 6.96D-08 at cycle  12 NSaved=  12.
 NSaved=12 IEnMin=12 EnMin= -1154.05082066096     IErMin=12 ErrMin= 6.96D-08
 ErrMax= 6.96D-08  0.00D+00 EMaxC= 1.00D-01 BMatC= 5.64D-12 BMatP= 1.16D-10
 IDIUse=1 WtCom= 1.00D+00 WtEn= 0.00D+00
 Coeff-Com: -0.102D-06 0.223D-05 0.167D-04 0.355D-04 0.187D-04-0.560D-03
 Coeff-Com: -0.187D-02-0.122D-01-0.927D-02 0.707D-01 0.275D+00 0.678D+00
 Coeff:     -0.102D-06 0.223D-05 0.167D-04 0.355D-04 0.187D-04-0.560D-03
 Coeff:     -0.187D-02-0.122D-01-0.927D-02 0.707D-01 0.275D+00 0.678D+00
 Gap=     0.210 Goal=   None    Shift=    0.000
 RMSDP=4.30D-09 MaxDP=2.24D-07 DE=-9.35D-11 OVMax= 5.66D-07

 Error on total polarization charges =  0.00660
 SCF Done:  E(RPBE1PBE) =  -1154.05082066     A.U. after   12 cycles
            NFock= 12  Conv=0.43D-08     -V/T= 2.0042
 KE= 1.149216214883D+03 PE=-5.278671160873D+03 EE= 1.700853282911D+03
 Leave Link  502 at Fri Feb 14 12:03:01 2025, MaxMem=  8053063680 cpu:             708.8 elap:              44.6
 (Enter /opt/apps/g16_avx2/tar//g16/l601.exe)
 Copying SCF densities to generalized density rwf, IOpCl= 0 IROHF=0.

 **********************************************************************

            Population analysis using the SCF Density.

 **********************************************************************

 Orbital symmetries:
       Occupied  (A) (A) (A) (A) (A) (A) (A) (A) (A) (A) (A) (A)
                 (A) (A) (A) (A) (A) (A) (A) (A) (A) (A) (A) (A)
                 (A) (A) (A) (A) (A) (A) (A) (A) (A) (A) (A) (A)
                 (A) (A) (A) (A) (A) (A) (A) (A) (A) (A) (A) (A)
                 (A) (A) (A) (A) (A) (A) (A) (A) (A) (A) (A) (A)
                 (A) (A) (A) (A)
       Virtual   (A) (A) (A) (A) (A) (A) (A) (A) (A) (A) (A) (A)
                 (A) (A) (A) (A) (A) (A) (A) (A) (A) (A) (A) (A)
                 (A) (A) (A) (A) (A) (A) (A) (A) (A) (A) (A) (A)
                 (A) (A) (A) (A) (A) (A) (A) (A) (A) (A) (A) (A)
                 (A) (A) (A) (A) (A) (A) (A) (A) (A) (A) (A) (A)
                 (A) (A) (A) (A) (A) (A) (A) (A) (A) (A) (A) (A)
                 (A) (A) (A) (A) (A) (A) (A) (A) (A) (A) (A) (A)
                 (A) (A) (A) (A) (A) (A) (A) (A) (A) (A) (A) (A)
                 (A) (A) (A) (A) (A) (A) (A) (A) (A) (A) (A) (A)
                 (A) (A) (A) (A) (A) (A) (A) (A) (A) (A) (A) (A)
                 (A) (A) (A) (A) (A) (A) (A) (A) (A) (A) (A) (A)
                 (A) (A) (A) (A) (A) (A) (A) (A) (A) (A) (A) (A)
                 (A) (A) (A) (A) (A) (A) (A) (A) (A) (A) (A) (A)
                 (A) (A) (A) (A) (A) (A) (A) (A) (A) (A) (A) (A)
                 (A) (A) (A) (A) (A) (A) (A) (A) (A) (A) (A) (A)
                 (A) (A) (A) (A) (A) (A) (A) (A) (A) (A) (A) (A)
                 (A) (A) (A) (A) (A) (A) (A) (A) (A) (A) (A) (A)
                 (A) (A) (A) (A) (A) (A) (A) (A) (A) (A) (A) (A)
                 (A) (A) (A) (A) (A) (A) (A) (A) (A) (A) (A) (A)
                 (A) (A) (A) (A) (A) (A) (A) (A) (A) (A) (A) (A)
                 (A) (A) (A) (A) (A) (A) (A) (A) (A) (A) (A) (A)
                 (A) (A) (A) (A) (A) (A) (A) (A) (A) (A) (A) (A)
                 (A) (A) (A) (A) (A) (A) (A) (A) (A) (A) (A) (A)
                 (A) (A) (A) (A) (A) (A) (A) (A) (A) (A) (A) (A)
                 (A) (A) (A) (A) (A) (A) (A) (A) (A) (A) (A) (A)
                 (A) (A) (A) (A) (A) (A) (A) (A) (A) (A) (A) (A)
                 (A) (A) (A) (A) (A) (A) (A) (A) (A) (A) (A) (A)
                 (A) (A) (A) (A) (A) (A) (A) (A) (A) (A) (A) (A)
                 (A) (A) (A) (A) (A) (A) (A) (A) (A) (A) (A) (A)
                 (A) (A) (A) (A) (A) (A) (A) (A) (A) (A) (A) (A)
                 (A) (A) (A) (A) (A) (A) (A) (A) (A) (A) (A) (A)
                 (A) (A) (A) (A) (A) (A) (A) (A) (A) (A) (A) (A)
                 (A) (A) (A) (A) (A) (A) (A) (A) (A) (A) (A) (A)
                 (A) (A) (A) (A) (A) (A) (A) (A) (A) (A) (A) (A)
                 (A) (A) (A) (A) (A) (A) (A) (A) (A) (A) (A) (A)
                 (A) (A) (A) (A) (A) (A) (A) (A) (A) (A) (A) (A)
                 (A) (A) (A) (A) (A) (A) (A) (A) (A) (A) (A) (A)
                 (A) (A) (A) (A) (A) (A) (A) (A) (A) (A) (A) (A)
                 (A) (A) (A) (A) (A) (A) (A) (A) (A) (A) (A) (A)
                 (A)
 The electronic state is 1-A.
 Alpha  occ. eigenvalues --  -24.82453 -24.82449 -24.82387 -24.82222 -24.82218
 Alpha  occ. eigenvalues --  -24.81702 -24.81563 -19.31408 -19.25486 -10.42894
 Alpha  occ. eigenvalues --  -10.42149 -10.36352 -10.36133 -10.36124 -10.36045
 Alpha  occ. eigenvalues --  -10.36038 -10.34065  -1.32666  -1.30648  -1.30169
 Alpha  occ. eigenvalues --   -1.29705  -1.28942  -1.28498  -1.26820  -1.19147
 Alpha  occ. eigenvalues --   -1.09119  -0.93799  -0.83859  -0.82131  -0.79505
 Alpha  occ. eigenvalues --   -0.72650  -0.70699  -0.67038  -0.63442  -0.63155
 Alpha  occ. eigenvalues --   -0.62540  -0.60758  -0.60392  -0.59707  -0.58128
 Alpha  occ. eigenvalues --   -0.57157  -0.56580  -0.55767  -0.54258  -0.52938
 Alpha  occ. eigenvalues --   -0.52038  -0.50307  -0.49899  -0.49415  -0.48808
 Alpha  occ. eigenvalues --   -0.48058  -0.47631  -0.47049  -0.46640  -0.45839
 Alpha  occ. eigenvalues --   -0.44785  -0.44140  -0.42243  -0.40848  -0.38334
 Alpha  occ. eigenvalues --   -0.37450  -0.34362  -0.28810  -0.28721
 Alpha virt. eigenvalues --   -0.07709  -0.04372  -0.03423  -0.02884   0.05957
 Alpha virt. eigenvalues --    0.06084   0.07150   0.10232   0.10697   0.12242
 Alpha virt. eigenvalues --    0.12804   0.14797   0.16264   0.16282   0.17344
 Alpha virt. eigenvalues --    0.18528   0.19091   0.19958   0.21384   0.22762
 Alpha virt. eigenvalues --    0.23741   0.24098   0.25239   0.25869   0.26637
 Alpha virt. eigenvalues --    0.27009   0.27678   0.29309   0.29551   0.29783
 Alpha virt. eigenvalues --    0.30499   0.31308   0.32819   0.33050   0.34707
 Alpha virt. eigenvalues --    0.36075   0.36236   0.37104   0.38983   0.39274
 Alpha virt. eigenvalues --    0.39783   0.39934   0.40412   0.41211   0.41778
 Alpha virt. eigenvalues --    0.43569   0.44339   0.44873   0.45138   0.46238
 Alpha virt. eigenvalues --    0.47327   0.48203   0.49526   0.51603   0.52648
 Alpha virt. eigenvalues --    0.54205   0.55206   0.55573   0.56492   0.59028
 Alpha virt. eigenvalues --    0.59547   0.59816   0.61934   0.62350   0.65318
 Alpha virt. eigenvalues --    0.65939   0.66814   0.67894   0.68434   0.68579
 Alpha virt. eigenvalues --    0.69896   0.71312   0.72064   0.72757   0.73701
 Alpha virt. eigenvalues --    0.74183   0.75814   0.76126   0.78967   0.79588
 Alpha virt. eigenvalues --    0.80061   0.81944   0.83358   0.83518   0.84001
 Alpha virt. eigenvalues --    0.84502   0.85431   0.86007   0.86925   0.87120
 Alpha virt. eigenvalues --    0.87850   0.88958   0.91256   0.91546   0.92321
 Alpha virt. eigenvalues --    0.93753   0.94835   0.95900   0.97997   0.99376
 Alpha virt. eigenvalues --    0.99961   1.00703   1.01656   1.03068   1.04356
 Alpha virt. eigenvalues --    1.05322   1.07976   1.08924   1.09449   1.10664
 Alpha virt. eigenvalues --    1.12490   1.12659   1.16580   1.16825   1.18560
 Alpha virt. eigenvalues --    1.18820   1.24256   1.24869   1.26908   1.30391
 Alpha virt. eigenvalues --    1.30771   1.32328   1.33074   1.36480   1.37438
 Alpha virt. eigenvalues --    1.37773   1.41024   1.41870   1.43354   1.44199
 Alpha virt. eigenvalues --    1.45318   1.49904   1.50527   1.51593   1.57093
 Alpha virt. eigenvalues --    1.57494   1.58934   1.60899   1.61363   1.65878
 Alpha virt. eigenvalues --    1.69574   1.70454   1.71548   1.72061   1.73305
 Alpha virt. eigenvalues --    1.74734   1.77601   1.78284   1.79223   1.79930
 Alpha virt. eigenvalues --    1.82465   1.84218   1.87294   1.89759   1.91182
 Alpha virt. eigenvalues --    1.91903   1.92465   1.92819   1.94412   1.94688
 Alpha virt. eigenvalues --    1.97770   1.99920   2.01314   2.02516   2.02725
 Alpha virt. eigenvalues --    2.03076   2.04178   2.05923   2.07257   2.09233
 Alpha virt. eigenvalues --    2.10756   2.11309   2.11669   2.15468   2.17033
 Alpha virt. eigenvalues --    2.17581   2.17778   2.19581   2.21118   2.23391
 Alpha virt. eigenvalues --    2.23999   2.25241   2.27689   2.29665   2.31472
 Alpha virt. eigenvalues --    2.31626   2.33462   2.36359   2.39621   2.40769
 Alpha virt. eigenvalues --    2.43014   2.45398   2.47738   2.47854   2.49664
 Alpha virt. eigenvalues --    2.51390   2.53186   2.54420   2.56891   2.57247
 Alpha virt. eigenvalues --    2.58933   2.60117   2.60601   2.61909   2.63572
 Alpha virt. eigenvalues --    2.64350   2.68722   2.72440   2.74707   2.75213
 Alpha virt. eigenvalues --    2.76923   2.78591   2.79103   2.81051   2.81298
 Alpha virt. eigenvalues --    2.82039   2.83168   2.84036   2.85369   2.85705
 Alpha virt. eigenvalues --    2.87499   2.88710   2.90394   2.91167   2.92065
 Alpha virt. eigenvalues --    2.92643   2.93100   2.94565   2.95478   2.97897
 Alpha virt. eigenvalues --    2.98111   2.99399   3.00437   3.01844   3.02160
 Alpha virt. eigenvalues --    3.03707   3.04524   3.05241   3.07697   3.08595
 Alpha virt. eigenvalues --    3.09066   3.09539   3.10818   3.12031   3.13139
 Alpha virt. eigenvalues --    3.14963   3.15287   3.15623   3.16611   3.17982
 Alpha virt. eigenvalues --    3.18398   3.19553   3.20205   3.20663   3.21429
 Alpha virt. eigenvalues --    3.23641   3.25035   3.27578   3.28577   3.31756
 Alpha virt. eigenvalues --    3.33506   3.34130   3.36670   3.37500   3.39665
 Alpha virt. eigenvalues --    3.40764   3.41977   3.42798   3.43885   3.44270
 Alpha virt. eigenvalues --    3.44766   3.45539   3.45877   3.47661   3.49202
 Alpha virt. eigenvalues --    3.51326   3.53716   3.55688   3.57932   3.58992
 Alpha virt. eigenvalues --    3.62736   3.63612   3.65023   3.65373   3.67259
 Alpha virt. eigenvalues --    3.69329   3.71485   3.74698   3.76274   3.79604
 Alpha virt. eigenvalues --    3.80106   3.81680   3.82770   3.84370   3.85983
 Alpha virt. eigenvalues --    3.87856   3.92598   3.92952   3.96127   3.97860
 Alpha virt. eigenvalues --    3.99550   4.02265   4.05595   4.07260   4.08584
 Alpha virt. eigenvalues --    4.08945   4.09407   4.11364   4.13426   4.14012
 Alpha virt. eigenvalues --    4.15566   4.17769   4.21593   4.22433   4.26896
 Alpha virt. eigenvalues --    4.27812   4.28482   4.31140   4.32964   4.34290
 Alpha virt. eigenvalues --    4.40062   4.42169   4.46905   4.51551   4.56303
 Alpha virt. eigenvalues --    4.66996   4.68730   4.69710   4.72719   4.77884
 Alpha virt. eigenvalues --    4.81325   4.83350   4.88469   4.91842   5.07094
 Alpha virt. eigenvalues --    5.08547   5.12980   5.15498   5.23725   5.28569
 Alpha virt. eigenvalues --    5.29449   5.30713   5.35601   5.39838   5.41732
 Alpha virt. eigenvalues --    5.49862   5.50774   5.51811   5.68113   5.81292
 Alpha virt. eigenvalues --    5.83332   5.90374   5.95526   6.07453   6.14915
 Alpha virt. eigenvalues --    6.31585   6.35780   6.39493   6.44012   6.55681
 Alpha virt. eigenvalues --    6.62753   6.68975   6.77162   6.84233   6.84431
 Alpha virt. eigenvalues --    6.84504   6.84723   6.84774   6.84854   6.84926
 Alpha virt. eigenvalues --    6.85012   6.85739   6.85886   6.86043   6.86153
 Alpha virt. eigenvalues --    6.86204   6.86801   6.87342   6.88449   6.90035
 Alpha virt. eigenvalues --    6.91996   6.93275   6.94267   6.95331   6.97971
 Alpha virt. eigenvalues --    6.98337   6.99431   7.01047   7.02652   7.03334
 Alpha virt. eigenvalues --    7.03494   7.06582   7.06799   7.10391   7.11804
 Alpha virt. eigenvalues --    7.13707   7.15830   7.19246   7.22190   7.22737
 Alpha virt. eigenvalues --    7.23538   7.24886   7.25014   7.25504   7.30278
 Alpha virt. eigenvalues --    7.31290   7.32825   7.35338   7.36778   7.38628
 Alpha virt. eigenvalues --    7.40787   7.44562   7.51604   7.58860   7.61674
 Alpha virt. eigenvalues --    7.65888   7.98966   8.29029   8.29517   8.31427
 Alpha virt. eigenvalues --    8.33161   8.34629   8.35067   8.39060   8.40194
 Alpha virt. eigenvalues --    8.41208   8.43981   8.50329   8.53010   8.55608
 Alpha virt. eigenvalues --    8.66993   8.69927   8.71875   8.73043   8.74202
 Alpha virt. eigenvalues --    8.76839   8.77288   8.78974   8.83557   8.83849
 Alpha virt. eigenvalues --    8.85987   8.90612   8.93351   8.93525   8.98028
 Alpha virt. eigenvalues --    8.99234   8.99453   9.00500   9.03928   9.05600
 Alpha virt. eigenvalues --    9.09847   9.35372  22.20720  22.57620  22.83083
 Alpha virt. eigenvalues --   22.85111  22.95179  22.95780  23.08729  23.62711
 Alpha virt. eigenvalues --   43.84915  44.41820  57.17227  57.19619  57.24499
 Alpha virt. eigenvalues --   57.37251  57.42653  57.48566  57.60329
          Condensed to atoms (all electrons):
               1          2          3          4          5          6
     1  O    7.860108   0.564826  -0.027906  -0.080382   0.002603   0.016843
     2  C    0.564826   4.743183   0.306494   0.320232  -0.154196   0.000896
     3  C   -0.027906   0.306494   4.392094  -0.024787  -0.005900   0.000580
     4  O   -0.080382   0.320232  -0.024787   7.812201   0.226228  -0.028867
     5  C    0.002603  -0.154196  -0.005900   0.226228   5.363982   0.288457
     6  C    0.016843   0.000896   0.000580  -0.028867   0.288457   4.977397
     7  C    0.016867   0.002530  -0.000780  -0.028642   0.287699   0.004514
     8  C   -0.003198   0.002172   0.000056   0.008356  -0.040357   0.366411
     9  C   -0.003329   0.001476  -0.000209   0.008678  -0.040588  -0.003107
    10  C    0.000263   0.000295   0.000020   0.000960   0.006481  -0.047942
    11  F   -0.000722   0.009027  -0.000354   0.001820  -0.060783   0.301748
    12  F   -0.000703   0.008789  -0.000703   0.001584  -0.060142   0.003617
    13  F    0.000001  -0.000000   0.000000  -0.000059   0.009433  -0.044904
    14  F    0.000001   0.000005   0.000000  -0.000058   0.009388  -0.000485
    15  F   -0.000000   0.000000   0.000000  -0.000000  -0.000928   0.006450
    16  F    0.000139  -0.034851   0.310035   0.001218  -0.000129  -0.000185
    17  H    0.003447  -0.091200   0.456054   0.008365   0.001150  -0.000129
    18  F   -0.004456  -0.037141   0.327492   0.000922   0.000236  -0.000027
               7          8          9         10         11         12
     1  O    0.016867  -0.003198  -0.003329   0.000263  -0.000722  -0.000703
     2  C    0.002530   0.002172   0.001476   0.000295   0.009027   0.008789
     3  C   -0.000780   0.000056  -0.000209   0.000020  -0.000354  -0.000703
     4  O   -0.028642   0.008356   0.008678   0.000960   0.001820   0.001584
     5  C    0.287699  -0.040357  -0.040588   0.006481  -0.060783  -0.060142
     6  C    0.004514   0.366411  -0.003107  -0.047942   0.301748   0.003617
     7  C    4.976793  -0.002975   0.367491  -0.048742   0.003670   0.302181
     8  C   -0.002975   4.946971  -0.041929   0.377694  -0.036845  -0.000839
     9  C    0.367491  -0.041929   4.946492   0.378270  -0.000838  -0.037162
    10  C   -0.048742   0.377694   0.378270   4.958074   0.005673   0.005613
    11  F    0.003670  -0.036845  -0.000838   0.005673   8.943483  -0.000021
    12  F    0.302181  -0.000839  -0.037162   0.005613  -0.000021   8.943468
    13  F   -0.000478   0.286203   0.006602  -0.039767   0.000977   0.000000
    14  F   -0.044774   0.006620   0.286141  -0.039790   0.000000   0.000990
    15  F    0.006410  -0.042100  -0.042111   0.291111  -0.000020  -0.000020
    16  F    0.000037   0.000018   0.000004  -0.000001  -0.000008   0.000000
    17  H   -0.000835   0.000034   0.000040  -0.000009  -0.000008   0.000169
    18  F   -0.000041   0.000001   0.000004  -0.000000   0.000000   0.000000
              13         14         15         16         17         18
     1  O    0.000001   0.000001  -0.000000   0.000139   0.003447  -0.004456
     2  C   -0.000000   0.000005   0.000000  -0.034851  -0.091200  -0.037141
     3  C    0.000000   0.000000   0.000000   0.310035   0.456054   0.327492
     4  O   -0.000059  -0.000058  -0.000000   0.001218   0.008365   0.000922
     5  C    0.009433   0.009388  -0.000928  -0.000129   0.001150   0.000236
     6  C   -0.044904  -0.000485   0.006450  -0.000185  -0.000129  -0.000027
     7  C   -0.000478  -0.044774   0.006410   0.000037  -0.000835  -0.000041
     8  C    0.286203   0.006620  -0.042100   0.000018   0.000034   0.000001
     9  C    0.006602   0.286141  -0.042111   0.000004   0.000040   0.000004
    10  C   -0.039767  -0.039790   0.291111  -0.000001  -0.000009  -0.000000
    11  F    0.000977   0.000000  -0.000020  -0.000008  -0.000008   0.000000
    12  F    0.000000   0.000990  -0.000020   0.000000   0.000169   0.000000
    13  F    8.949454  -0.000021   0.001061   0.000000   0.000000   0.000000
    14  F   -0.000021   8.949442   0.001061  -0.000000  -0.000000   0.000000
    15  F    0.001061   0.001061   8.944459   0.000000   0.000000  -0.000000
    16  F    0.000000  -0.000000   0.000000   8.979649  -0.042353  -0.045362
    17  H    0.000000  -0.000000   0.000000  -0.042353   0.575539  -0.042193
    18  F    0.000000   0.000000  -0.000000  -0.045362  -0.042193   8.966139
 Mulliken charges:
               1
     1  O   -0.344399
     2  C    0.357464
     3  C    0.267812
     4  O   -0.227767
     5  C    0.167370
     6  C    0.158735
     7  C    0.159074
     8  C    0.173707
     9  C    0.174074
    10  C    0.151797
    11  F   -0.166799
    12  F   -0.166819
    13  F   -0.168502
    14  F   -0.168519
    15  F   -0.165373
    16  F   -0.168211
    17  H    0.131929
    18  F   -0.165574
 Sum of Mulliken charges =  -0.00000
 Mulliken charges with hydrogens summed into heavy atoms:
               1
     1  O   -0.344399
     2  C    0.357464
     3  C    0.399741
     4  O   -0.227767
     5  C    0.167370
     6  C    0.158735
     7  C    0.159074
     8  C    0.173707
     9  C    0.174074
    10  C    0.151797
    11  F   -0.166799
    12  F   -0.166819
    13  F   -0.168502
    14  F   -0.168519
    15  F   -0.165373
    16  F   -0.168211
    18  F   -0.165574
 Electronic spatial extent (au):  <R**2>=           4429.9002
 Charge=             -0.0000 electrons
 Dipole moment (field-independent basis, Debye):
    X=              0.8910    Y=             -0.7529    Z=             -3.2361  Tot=              3.4399
 Quadrupole moment (field-independent basis, Debye-Ang):
   XX=            -94.1211   YY=            -96.0195   ZZ=            -90.6245
   XY=             -3.0778   XZ=             -6.9257   YZ=              1.3753
 Traceless Quadrupole moment (field-independent basis, Debye-Ang):
   XX=             -0.5327   YY=             -2.4312   ZZ=              2.9639
   XY=             -3.0778   XZ=             -6.9257   YZ=              1.3753
 Octapole moment (field-independent basis, Debye-Ang**2):
  XXX=             30.7215  YYY=              0.5690  ZZZ=             -2.8852  XYY=             11.5744
  XXY=            -10.3593  XXZ=            -32.6026  XZZ=             -3.2020  YZZ=              0.8610
  YYZ=              2.1086  XYZ=              6.7794
 Hexadecapole moment (field-independent basis, Debye-Ang**3):
 XXXX=          -3640.9806 YYYY=          -1034.5052 ZZZZ=           -232.4942 XXXY=            -35.5189
 XXXZ=            -85.1880 YYYX=              2.8747 YYYZ=             -2.8572 ZZZX=            -21.2205
 ZZZY=              1.0771 XXYY=           -782.4402 XXZZ=           -608.3733 YYZZ=           -198.6606
 XXYZ=             21.8700 YYXZ=              0.0536 ZZXY=              1.5574
 N-N= 1.274550842418D+03 E-N=-5.278671147287D+03  KE= 1.149216214883D+03
 No NMR shielding tensors so no spin-rotation constants.
 Leave Link  601 at Fri Feb 14 12:03:01 2025, MaxMem=  8053063680 cpu:               1.5 elap:               0.2
 (Enter /opt/apps/g16_avx2/tar//g16/l701.exe)
 ... and contract with generalized density number  0.
 Compute integral first derivatives.
 R6Disp: Adding Grimme-D3 dispersion energy 1st derivatives to the gradient.
   1 Symmetry operations used in ECPInt.
 ECPInt:  NShTT=   18336 NPrTT=   60408 LenC2=   15790 LenP2D=   36922.
 LDataN:  DoStor=T MaxTD1= 7 Len=  274
 D1PCM: PCM CHGder 1st derivatives, ID1Alg=3 FixD1E=F DoIter=F DoCFld=F I1PDM=0.
 GePol: Maximum number of non-zero 1st derivatives   =     210
 Leave Link  701 at Fri Feb 14 12:03:02 2025, MaxMem=  8053063680 cpu:              11.1 elap:               0.8
 (Enter /opt/apps/g16_avx2/tar//g16/l702.exe)
 L702 exits ... SP integral derivatives will be done elsewhere.
 Leave Link  702 at Fri Feb 14 12:03:02 2025, MaxMem=  8053063680 cpu:               0.1 elap:               0.1
 (Enter /opt/apps/g16_avx2/tar//g16/l703.exe)
 Integral derivatives from FoFJK, PRISM(SPDF).
 Compute integral first derivatives, UseDBF=F ICtDFT=           0.
 Calling FoFJK, ICntrl=      2127 FMM=F ISym2X=0 I1Cent= 0 IOpClX= 0 NMat=1 NMatS=1 NMatT=0.
 FoFJK:  IHMeth= 1 ICntrl=    2127 DoSepK=F KAlg= 0 I1Cent=           0 FoldK=F
 IRaf=         0 NMat=       1 IRICut=       1 DoRegI=T DoRafI=F ISym2E= 0 IDoP0=0 IntGTp=1.
 FoFCou: FMM=F IPFlag=           0 FMFlag=      100000 FMFlg1=         800
         NFxFlg=           0 DoJE=F BraDBF=F KetDBF=F FulRan=T
         wScrn=  0.000000 ICntrl=      2127 IOpCl=  0 I1Cent=           0 NGrid=           0
         NMat0=    1 NMatS0=      1 NMatT0=    0 NMatD0=    1 NMtDS0=    0 NMtDT0=    0
 Symmetry not used in FoFCou.
 Leave Link  703 at Fri Feb 14 12:03:16 2025, MaxMem=  8053063680 cpu:             230.9 elap:              14.5
 (Enter /opt/apps/g16_avx2/tar//g16/l716.exe)
 Dipole        = 3.50545833D-01-2.96195500D-01-1.27316619D+00
 ***** Axes restored to original set *****
 -------------------------------------------------------------------
 Center     Atomic                   Forces (Hartrees/Bohr)
 Number     Number              X              Y              Z
 -------------------------------------------------------------------
      1        8           0.034883661    0.079014395    0.049101558
      2        6          -0.065078695   -0.091352238   -0.026705996
      3        6          -0.006566461    0.003870643    0.008328138
      4        8           0.085964676    0.030117958   -0.054537236
      5        6          -0.043450169   -0.031301378    0.010941147
      6        6          -0.003854424   -0.005823957    0.005552972
      7        6          -0.008768485   -0.000399053    0.000409142
      8        6           0.002790296   -0.004794662    0.005292155
      9        6          -0.005600686    0.004156972   -0.003101909
     10        6          -0.004670791   -0.002934312    0.001533483
     11        9          -0.021651986    0.007009535   -0.008999210
     12        9           0.002635220   -0.018841570    0.015319170
     13        9          -0.002491332    0.017186242   -0.014950757
     14        9           0.020328221   -0.007096760    0.007841234
     15        9           0.019921347    0.011206909   -0.007999939
     16        9          -0.005509799   -0.002223779   -0.003215223
     17        1           0.003352013    0.016311661    0.001927039
     18        9          -0.002232604   -0.004106607    0.013264232
 -------------------------------------------------------------------
 Cartesian Forces:  Max     0.091352238 RMS     0.027626566
 Leave Link  716 at Fri Feb 14 12:03:16 2025, MaxMem=  8053063680 cpu:               0.1 elap:               0.1
 (Enter /opt/apps/g16_avx2/tar//g16/l103.exe)

 GradGradGradGradGradGradGradGradGradGradGradGradGradGradGradGradGradGrad
 Berny optimization.
 FormGI is forming the generalized inverse of G from B-inverse, IUseBI=4.
 Internal  Forces:  Max     0.099342169 RMS     0.017057416
 Search for a local minimum.
 Step number   1 out of a maximum of   90
 All quantities printed in internal units (Hartrees-Bohrs-Radians)
 RMS Force = .17057D-01 SwitMx=.10000D-02 MixMth= 1
 Mixed Optimization -- RFO/linear search
 Second derivative matrix not updated -- first step.
 ITU=  0
     Eigenvalues ---    0.00237   0.00501   0.01295   0.02070   0.02070
     Eigenvalues ---    0.02070   0.02070   0.02070   0.02070   0.02070
     Eigenvalues ---    0.02070   0.02239   0.02997   0.07672   0.09544
     Eigenvalues ---    0.16000   0.23571   0.24199   0.25000   0.25000
     Eigenvalues ---    0.25000   0.25000   0.25000   0.25000   0.25000
     Eigenvalues ---    0.25000   0.25000   0.25000   0.25000   0.25000
     Eigenvalues ---    0.28519   0.37230   0.40989   0.41797   0.41797
     Eigenvalues ---    0.45389   0.45389   0.45389   0.45389   0.55021
     Eigenvalues ---    0.55021   0.55021   0.55021   0.55021   0.55021
     Eigenvalues ---    0.55021   0.66833   0.80209
 RFO step:  Lambda=-4.08708382D-02 EMin= 2.36824221D-03
 Linear search not attempted -- first point.
 Iteration  1 RMS(Cart)=  0.05578996 RMS(Int)=  0.00105661
 Iteration  2 RMS(Cart)=  0.00107243 RMS(Int)=  0.00027923
 Iteration  3 RMS(Cart)=  0.00000340 RMS(Int)=  0.00027923
 Iteration  4 RMS(Cart)=  0.00000000 RMS(Int)=  0.00027923
 ITry= 1 IFail=0 DXMaxC= 1.59D-01 DCOld= 1.00D+10 DXMaxT= 3.00D-01 DXLimC= 3.00D+00 Rises=F
 Variable       Old X    -DE/DX   Delta X   Delta X   Delta X     New X
                                 (Linear)    (Quad)   (Total)
    R1        2.37803  -0.09934   0.00000  -0.11785  -0.11785   2.26018
    R2        2.91018  -0.00951   0.00000  -0.02918  -0.02918   2.88100
    R3        2.70231  -0.05450   0.00000  -0.12090  -0.12090   2.58141
    R4        2.55113  -0.00488   0.00000  -0.00826  -0.00826   2.54287
    R5        2.02201   0.01617   0.00000   0.03914   0.03914   2.06114
    R6        2.55113  -0.01289   0.00000  -0.02181  -0.02181   2.52932
    R7        2.45910   0.05534   0.00000   0.07803   0.07803   2.53713
    R8        2.64826  -0.01188   0.00000  -0.02351  -0.02349   2.62477
    R9        2.64826  -0.01192   0.00000  -0.02359  -0.02357   2.62469
   R10        2.64826  -0.01844   0.00000  -0.03726  -0.03726   2.61100
   R11        2.55113  -0.02444   0.00000  -0.04135  -0.04135   2.50978
   R12        2.64826  -0.01842   0.00000  -0.03724  -0.03724   2.61103
   R13        2.55113  -0.02440   0.00000  -0.04128  -0.04128   2.50985
   R14        2.64826  -0.01814   0.00000  -0.03715  -0.03717   2.61109
   R15        2.55113  -0.02290   0.00000  -0.03874  -0.03874   2.51239
   R16        2.64826  -0.01813   0.00000  -0.03713  -0.03715   2.61111
   R17        2.55113  -0.02291   0.00000  -0.03875  -0.03875   2.51238
   R18        2.55113  -0.02422   0.00000  -0.04097  -0.04097   2.51016
    A1        2.09440   0.01830   0.00000   0.06293   0.06293   2.15732
    A2        2.09440   0.01463   0.00000   0.05029   0.05028   2.14468
    A3        2.09440  -0.03293   0.00000  -0.11321  -0.11322   1.98118
    A4        1.91063  -0.00648   0.00000  -0.03028  -0.03098   1.87966
    A5        1.91063   0.01078   0.00000   0.05840   0.05855   1.96918
    A6        1.91063  -0.00891   0.00000  -0.03921  -0.03979   1.87084
    A7        1.91063   0.00143   0.00000   0.01272   0.01276   1.92339
    A8        1.91063   0.00099   0.00000  -0.01646  -0.01812   1.89251
    A9        1.91063   0.00220   0.00000   0.01483   0.01509   1.92573
   A10        2.09440  -0.01578   0.00000  -0.05426  -0.05426   2.04014
   A11        2.09440   0.00441   0.00000   0.01432   0.01426   2.10865
   A12        2.09440   0.00418   0.00000   0.01352   0.01346   2.10785
   A13        2.09440  -0.00860   0.00000  -0.02784  -0.02784   2.06656
   A14        2.09440   0.00456   0.00000   0.01652   0.01655   2.11094
   A15        2.09440  -0.00321   0.00000  -0.01146  -0.01147   2.08292
   A16        2.09440  -0.00135   0.00000  -0.00506  -0.00508   2.08932
   A17        2.09440   0.00451   0.00000   0.01636   0.01638   2.11078
   A18        2.09440  -0.00313   0.00000  -0.01120  -0.01121   2.08318
   A19        2.09440  -0.00138   0.00000  -0.00516  -0.00517   2.08922
   A20        2.09440  -0.00051   0.00000  -0.00261  -0.00262   2.09177
   A21        2.09440   0.00115   0.00000   0.00439   0.00440   2.09880
   A22        2.09440  -0.00064   0.00000  -0.00179  -0.00178   2.09262
   A23        2.09440  -0.00046   0.00000  -0.00244  -0.00246   2.09194
   A24        2.09440   0.00112   0.00000   0.00428   0.00429   2.09869
   A25        2.09440  -0.00066   0.00000  -0.00184  -0.00183   2.09256
   A26        2.09440   0.00050   0.00000   0.00001  -0.00003   2.09437
   A27        2.09440  -0.00025   0.00000  -0.00001   0.00001   2.09441
   A28        2.09440  -0.00025   0.00000  -0.00000   0.00002   2.09441
    D1       -1.57080   0.00421   0.00000   0.03198   0.03126  -1.53954
    D2        2.61799  -0.00017   0.00000  -0.00081  -0.00090   2.61710
    D3        0.52360  -0.00400   0.00000  -0.03073  -0.02990   0.49370
    D4        1.57080   0.00403   0.00000   0.02803   0.02729   1.59809
    D5       -0.52360  -0.00035   0.00000  -0.00477  -0.00486  -0.52846
    D6       -2.61799  -0.00418   0.00000  -0.03468  -0.03387  -2.65186
    D7        0.00000   0.00024   0.00000   0.00417   0.00418   0.00419
    D8       -3.14159   0.00042   0.00000   0.00813   0.00812  -3.13347
    D9        1.57080   0.00048   0.00000   0.00772   0.00789   1.57869
   D10       -1.57080  -0.00058   0.00000  -0.00908  -0.00926  -1.58005
   D11        3.14159  -0.00139   0.00000  -0.02235  -0.02232   3.11927
   D12       -0.00000  -0.00142   0.00000  -0.02285  -0.02280  -0.02280
   D13       -0.00000  -0.00033   0.00000  -0.00555  -0.00556  -0.00557
   D14        3.14159  -0.00036   0.00000  -0.00605  -0.00605   3.13554
   D15       -3.14159   0.00139   0.00000   0.02241   0.02237  -3.11922
   D16       -0.00000   0.00140   0.00000   0.02245   0.02239   0.02239
   D17        0.00000   0.00033   0.00000   0.00561   0.00563   0.00563
   D18        3.14159   0.00034   0.00000   0.00565   0.00564  -3.13595
   D19        0.00000   0.00015   0.00000   0.00247   0.00253   0.00253
   D20       -3.14159   0.00017   0.00000   0.00288   0.00292  -3.13867
   D21       -3.14159   0.00018   0.00000   0.00298   0.00302  -3.13858
   D22        0.00000   0.00021   0.00000   0.00338   0.00340   0.00341
   D23        0.00000  -0.00015   0.00000  -0.00259  -0.00265  -0.00265
   D24        3.14159  -0.00018   0.00000  -0.00302  -0.00306   3.13853
   D25       -3.14159  -0.00016   0.00000  -0.00263  -0.00267   3.13892
   D26        0.00000  -0.00019   0.00000  -0.00306  -0.00308  -0.00308
   D27        0.00000   0.00003   0.00000   0.00055   0.00058   0.00058
   D28       -3.14159   0.00012   0.00000   0.00201   0.00200  -3.13959
   D29       -3.14159   0.00000   0.00000   0.00014   0.00019  -3.14140
   D30        0.00000   0.00010   0.00000   0.00160   0.00161   0.00161
   D31       -0.00000  -0.00003   0.00000  -0.00048  -0.00051  -0.00052
   D32        3.14159  -0.00012   0.00000  -0.00195  -0.00193   3.13965
   D33        3.14159   0.00000   0.00000  -0.00005  -0.00011   3.14149
   D34       -0.00000  -0.00009   0.00000  -0.00152  -0.00153  -0.00153
         Item               Value     Threshold  Converged?
 Maximum Force            0.099342     0.000450     NO 
 RMS     Force            0.017057     0.000300     NO 
 Maximum Displacement     0.159214     0.001800     NO 
 RMS     Displacement     0.056170     0.001200     NO 
 Predicted change in Energy=-2.224249D-02
 Lowest energy point so far.  Saving SCF results.
 GradGradGradGradGradGradGradGradGradGradGradGradGradGradGradGradGradGrad

 Leave Link  103 at Fri Feb 14 12:03:16 2025, MaxMem=  8053063680 cpu:               0.5 elap:               0.1
 (Enter /opt/apps/g16_avx2/tar//g16/l202.exe)
                          Input orientation:                          
 ---------------------------------------------------------------------
 Center     Atomic      Atomic             Coordinates (Angstroms)
 Number     Number       Type             X           Y           Z
 ---------------------------------------------------------------------
      1          8           0        0.711791   -0.153033   -3.071984
      2          6           0        1.153975    0.798482   -2.497879
      3          6           0        2.405952    1.545907   -2.943058
      4          8           0        0.581674    1.316692   -1.370959
      5          6           0       -0.521345    0.703364   -0.912992
      6          6           0       -0.429339   -0.330837    0.009610
      7          6           0       -1.783115    1.101651   -1.335396
      8          6           0       -1.563904   -0.946374    0.502480
      9          6           0       -2.921697    0.490392   -0.846444
     10          6           0       -2.811164   -0.534460    0.073705
     11          9           0        0.768250   -0.731313    0.421070
     12          9           0       -1.892834    2.084398   -2.222057
     13          9           0       -1.459862   -1.932814    1.387734
     14          9           0       -4.122826    0.885009   -1.257685
     15          9           0       -3.903982   -1.122596    0.547285
     16          9           0        3.465365    0.948703   -2.367113
     17          1           0        2.382161    2.604549   -2.681601
     18          9           0        2.505251    1.396481   -4.269436
 ---------------------------------------------------------------------
                    Distance matrix (angstroms):
                    1          2          3          4          5
     1  O    0.000000
     2  C    1.196037   0.000000
     3  C    2.402749   1.524558   0.000000
     4  O    2.251779   1.366023   2.419096   0.000000
     5  C    2.629694   2.308162   3.660617   1.342593   0.000000
     6  C    3.290899   3.173286   4.503254   2.375388   1.388968
     7  C    3.288545   3.173291   4.508905   2.374812   1.388928
     8  C    4.311030   4.408349   5.817470   3.637959   2.410835
     9  C    4.309207   4.408317   5.821834   3.637513   2.410700
    10  C    4.738360   4.910407   6.375506   4.126156   2.783711
    11  F    3.541049   3.318030   4.380087   2.727728   2.345437
    12  F    3.537308   3.318540   4.391967   2.727074   2.345610
    13  F    5.269989   5.421264   6.767701   4.726260   3.622649
    14  F    5.267138   5.421272   6.775117   4.725622   3.622495
    15  F    5.945127   6.208582   7.688867   5.454438   4.112028
    16  F    3.048415   2.319955   1.345631   3.073013   4.250708
    17  H    3.247583   2.191820   1.090710   2.572569   3.895231
    18  F    2.655444   2.306939   1.338457   3.479610   4.572353
                    6          7          8          9         10
     6  C    0.000000
     7  C    2.386163   0.000000
     8  C    1.381682   2.760480   0.000000
     9  C    2.760271   1.381695   2.393218   0.000000
    10  C    2.391372   2.391508   1.381730   1.381742   0.000000
    11  F    1.328119   3.599221   2.343464   4.088382   3.601613
    12  F    3.599377   1.328155   4.088627   2.343443   3.601703
    13  F    2.351070   4.089976   1.329497   3.605612   2.346931
    14  F    4.089763   2.351004   3.605582   1.329493   2.346902
    15  F    3.604042   3.604143   2.347132   2.347146   1.328320
    16  F    4.738645   5.351110   6.092572   6.581569   6.895808
    17  H    4.874796   4.628228   6.190222   5.997364   6.664511
    18  F    5.468609   5.204383   6.694638   6.479942   7.131316
                   11         12         13         14         15
    11  F    0.000000
    12  F    4.689959   0.000000
    13  F    2.709709   5.418122   0.000000
    14  F    5.417872   2.709504   4.693586   0.000000
    15  F    4.690286   4.690286   2.708603   2.708559   0.000000
    16  F    4.227392   5.479155   6.830803   7.669128   8.190926
    17  H    4.833141   4.330972   7.204740   6.877442   7.989550
    18  F    5.435580   4.899811   7.668761   7.298195   8.403858
                   16         17         18
    16  F    0.000000
    17  H    2.003512   0.000000
    18  F    2.177420   1.998950   0.000000
 Stoichiometry    C8HF7O2
 Framework group  C1[X(C8HF7O2)]
 Deg. of freedom    48
 Full point group                 C1      NOp   1
 RotChk:  IX=0 Diff= 2.14D-03
 Largest Abelian subgroup         C1      NOp   1
 Largest concise Abelian subgroup C1      NOp   1
                         Standard orientation:                         
 ---------------------------------------------------------------------
 Center     Atomic      Atomic             Coordinates (Angstroms)
 Number     Number       Type             X           Y           Z
 ---------------------------------------------------------------------
      1          8           0        1.818123   -0.159603    1.374379
      2          6           0        2.150712   -0.130962    0.225872
      3          6           0        3.604474   -0.157818   -0.232528
      4          8           0        1.255652   -0.065720   -0.803997
      5          6           0       -0.045756   -0.028886   -0.476069
      6          6           0       -0.694516    1.182442   -0.273521
      7          6           0       -0.780515   -1.200908   -0.351106
      8          6           0       -2.039887    1.224492    0.038334
      9          6           0       -2.126170   -1.165902   -0.039547
     10          6           0       -2.755902    0.048522    0.154935
     11          9           0       -0.008195    2.314344   -0.381519
     12          9           0       -0.177620   -2.370060   -0.534401
     13          9           0       -2.647764    2.391881    0.226091
     14          9           0       -2.817067   -2.296160    0.073272
     15          9           0       -4.049958    0.085548    0.452394
     16          9           0        4.043626    1.113438   -0.274662
     17          1           0        3.732500   -0.633002   -1.205902
     18          9           0        4.301719   -0.815690    0.701561
 ---------------------------------------------------------------------
 Rotational constants (GHZ):           0.8478309           0.2742293           0.2203283
 Leave Link  202 at Fri Feb 14 12:03:17 2025, MaxMem=  8053063680 cpu:               0.0 elap:               0.1
 (Enter /opt/apps/g16_avx2/tar//g16/l301.exe)
 Standard basis: def2TZVP (5D, 7F)
 Ernie: Thresh=  0.10000D-02 Tol=  0.10000D-05 Strict=F.
 There are   618 symmetry adapted cartesian basis functions of A   symmetry.
 There are   533 symmetry adapted basis functions of A   symmetry.
   533 basis functions,   875 primitive gaussians,   618 cartesian basis functions
    64 alpha electrons       64 beta electrons
       nuclear repulsion energy      1294.2146887300 Hartrees.
 IExCor= 1009 DFT=T Ex+Corr=PBE1PBE ExCW=0 ScaHFX=  0.250000
 ScaDFX=  0.750000  0.750000  1.000000  1.000000 ScalE2=  1.000000  1.000000
 IRadAn=  99590 IRanWt=     -1 IRanGd=            0 ICorTp=0 IEmpDi=131
 NAtoms=   18 NActive=   18 NUniq=   18 SFac= 1.00D+00 NAtFMM=   60 NAOKFM=F Big=F
 Integral buffers will be    131072 words long.
 Raffenetti 2 integral format.
 Two-electron integral symmetry is turned on.
 R6Disp:  Grimme-D3 Dispersion energy=       -0.0094188621 Hartrees.
 Nuclear repulsion after empirical dispersion term =     1294.2052698679 Hartrees.
 ------------------------------------------------------------------------------
 Polarizable Continuum Model (PCM)
 =================================
 Model                : PCM.
 Atomic radii         : UFF (Universal Force Field).
 Polarization charges : Total charges.
 Charge compensation  : None.
 Solution method      : On-the-fly selection.
 Cavity type          : Scaled VdW (van der Waals Surface) (Alpha=1.100).
 Cavity algorithm     : GePol (No added spheres)
                        Default sphere list used, NSphG=   18.
                        Lebedev-Laikov grids with approx.  5.0 points / Ang**2.
                        Smoothing algorithm: York/Karplus (Gamma=1.0000).
                        Polarization charges: spherical gaussians, with
                                              point-specific exponents (IZeta= 3).
                        Self-potential: point-specific (ISelfS= 7).
                        Self-field    : sphere-specific E.n sum rule (ISelfD= 2).
 1st derivatives      : Analytical E(r).r(x)/FMM algorithm (CHGder, D1EAlg=3).
                        Cavity 1st derivative terms included.
 Solvent              : Water, Eps=  78.355300 Eps(inf)=   1.777849
 ------------------------------------------------------------------------------
 Spheres list:
 ISph  on   Nord     Re0    Alpha      Xe            Ye            Ze
    1   O      1    1.7500  1.100      1.818123     -0.159603      1.374379
    2   C      2    1.9255  1.100      2.150712     -0.130962      0.225872
    3   C      3    1.9255  1.100      3.604474     -0.157818     -0.232528
    4   O      4    1.7500  1.100      1.255652     -0.065720     -0.803997
    5   C      5    1.9255  1.100     -0.045756     -0.028886     -0.476069
    6   C      6    1.9255  1.100     -0.694516      1.182442     -0.273521
    7   C      7    1.9255  1.100     -0.780515     -1.200908     -0.351106
    8   C      8    1.9255  1.100     -2.039887      1.224492      0.038334
    9   C      9    1.9255  1.100     -2.126170     -1.165902     -0.039547
   10   C     10    1.9255  1.100     -2.755902      0.048522      0.154935
   11   F     11    1.6820  1.100     -0.008195      2.314344     -0.381519
   12   F     12    1.6820  1.100     -0.177620     -2.370060     -0.534401
[...]
 4289565,0.3371742,-0.1420829,0.155097,-0.1202216,0.2084375,0.1890776,-
 0.045575,0.0380885,-0.2481935,1.122693,-0.6621574,0.1833672,-0.7499896
 ,0.5999396,0.0029936,-0.084214,0.0741896,-0.1114267,1.1085685,-0.77273
 92,0.0904807,-0.748232,0.6469007,1.4305583,-0.5883037,0.249377,-0.5311
 853,0.2421136,-0.0605419,0.2512686,-0.0479014,0.0876144,1.2199215,0.51
 02597,-0.5440508,0.5270048,0.4380457,-0.3306902,-0.528559,-0.3184035,0
 .4048681,-1.2598969,0.44311,-0.2465176,0.4260454,-0.3479447,0.1696038,
 -0.1934202,0.1555912,-0.2043694,-0.2320639,0.1211189,-0.0638267,0.1642
 329,-1.0220937,0.6553014,-0.1134245,0.68403,-0.571775,-0.2167976,0.113
 9042,-0.0656398,0.0726594,-1.0273391,0.7300926,-0.0379543,0.6904144,-0
 .616417,-1.3655817,0.468622,-0.1589707,0.4772798,-0.344553,0.1338557,-
 0.207485,0.1424002,-0.1626482,-1.1309245,-0.4560238,0.5033515,-0.48280
 35,-0.404718,0.3192636,0.4846158,0.2940467,-0.3766012,-0.7095586,-0.19
 94622,-0.3277938,-0.08684,-0.3511366,-0.0595848,-0.3214071,-0.1639757,
 -0.7675508,-0.0275205,-0.0410082,0.0225725,0.0454804,-0.0254009,0.0245
 754,-0.0177406,0.0207212,0.0334934,-0.6647894,0.1297517,0.4203124,0.18
 24046,-0.4290498,-0.2901589,0.3201584,-0.1724658,-0.7589087\Polar=147.
 4612718,0.7019494,118.3933639,-16.3920812,-23.603328,107.0722409\Quadr
 upole=-4.8678311,2.9336373,1.9341938,3.4065466,1.1673454,-2.6154105\PG
 =C01 [X(C8H1F7O2)]\NImag=0\\0.11681397,0.17761507,0.74053865,0.0424300
 3,0.31342685,0.19695853,-0.14661039,-0.18476345,-0.05858908,0.49309628
 ,-0.16636764,-0.65912038,-0.24138937,0.22198026,0.88333285,-0.04691344
 ,-0.22763470,-0.18193773,-0.07989789,0.24352597,0.44828953,0.01318614,
 -0.00381990,0.00357229,-0.14861415,-0.05159745,0.03302590,0.54108315,-
 0.03321233,-0.02649956,-0.01170909,-0.03299561,-0.11416099,0.04366406,
 -0.05905282,0.60052102,-0.00186046,-0.01883671,0.01366747,0.01736329,0
 .03803642,-0.07804897,-0.00755995,-0.03475448,0.47903298,0.02496670,0.
 03132250,0.02117357,-0.12877597,0.00308646,0.06370377,-0.00801849,0.01
 237659,0.02756451,0.37758477,0.02237758,-0.04710053,-0.06459118,0.0140
 6152,-0.12283192,-0.05099963,-0.00656035,0.01024143,0.00544417,0.06915
 852,0.29581314,0.01501612,-0.07397929,-0.03220152,0.06989393,-0.041209
 14,-0.14072042,0.00863734,-0.01199108,-0.01103408,-0.20094188,0.058896
 96,0.27407816,0.00257971,-0.01354292,-0.01417488,-0.05273905,0.0081942
 9,0.04423480,-0.00057210,0.00125591,0.00406002,-0.19129382,-0.06865395
 ,0.05961179,0.70934723,0.00258432,-0.01023378,-0.00569798,0.00217168,0
 .02587843,0.01482585,-0.00271166,0.00013988,-0.00351868,-0.07907652,-0
 .13148594,0.04288403,-0.05358284,0.51705616,-0.00371360,0.00754933,0.0
 0327767,0.04053615,0.00965022,-0.02698352,0.00328269,-0.00562934,-0.00
 035638,0.05322247,0.03516445,-0.08352661,-0.04310313,-0.26740548,0.354
 10686,-0.00039328,0.00615483,0.00214331,0.00461417,-0.01336086,-0.0049
 1388,0.00104814,0.00144699,-0.00028603,-0.01601289,-0.03198326,0.03341
 951,-0.11568326,0.05676963,-0.03740950,0.73329570,0.00077553,-0.001365
 20,-0.00040563,0.00188394,0.00148536,-0.00009640,-0.00071405,-0.000532
 11,-0.00007356,-0.00957372,-0.01531895,0.01610614,-0.02100618,-0.23719
 725,0.13477597,-0.03132887,0.51821494,0.00089758,0.00024003,0.00006951
 ,-0.00060309,0.00121185,-0.00134315,0.00064833,0.00044039,0.00006862,0
 .00608334,0.01597389,-0.00685352,0.02279767,0.12737864,-0.15722880,-0.
 04233767,-0.28491261,0.34845298,0.00196843,0.00192196,-0.00024287,0.00
 022504,-0.00417408,-0.00587691,-0.00011667,-0.00047024,0.00050505,-0.0
 4667078,0.00262980,0.00656788,-0.30145975,0.04144047,0.00084126,0.0336
 8655,0.07633728,-0.06020107,0.72680550,-0.00031597,0.00415398,0.001776
 62,0.00052780,-0.00835242,-0.00625959,0.00224715,0.00102345,0.00050037
 ,-0.02948226,0.00976646,0.00859930,0.11869629,-0.12528871,0.03313842,0
 .02797921,-0.01132459,0.00586893,-0.03355911,0.52072630,0.00013030,-0.
 00158333,-0.00122583,0.00151529,0.00398248,0.00355208,-0.00146871,-0.0
 0061254,-0.00049615,0.02510827,-0.00253273,0.00183250,-0.05945451,0.04
 341464,-0.08702869,-0.02452166,0.00141182,0.00278073,-0.04303633,-0.28
 820598,0.35350124,0.00085838,0.00028351,-0.00050067,-0.00083700,0.0000
 6918,0.00027107,-0.00010649,-0.00005125,-0.00001339,-0.00078485,0.0043
 5583,-0.00408008,0.05421066,-0.06470623,0.04408457,-0.25640299,-0.0356
 4519,0.04818297,-0.07984781,-0.00300413,0.01230521,0.72749175,0.000814
 06,-0.00039832,-0.00104727,-0.00189519,0.00015188,0.00183854,-0.000858
 97,-0.00015015,0.00013048,0.00429777,0.00027098,0.00192053,-0.01812969
 ,-0.01632448,0.01576341,-0.11889502,-0.13686522,0.06859182,-0.00287369
 ,-0.00083020,0.00623246,-0.03231050,0.52542649,-0.00043656,0.00065290,
 0.00063642,0.00107835,-0.00183988,-0.00094443,0.00060931,0.00032141,-0
 .00007517,-0.00337219,0.00349565,0.00328787,0.00857838,0.02120010,-0.0
 1520887,0.11042516,0.05898483,-0.11869667,0.01177478,0.00679374,0.0015
 7816,-0.04385972,-0.29373883,0.34891336,0.00016334,-0.00134564,-0.0011
 4837,-0.00286200,0.00227132,0.00306691,-0.00080341,-0.00036866,0.00027
 911,0.00415540,0.00243885,-0.00293171,-0.05371063,0.01516536,-0.005621
 25,-0.01863937,-0.02219203,0.01937309,-0.25940755,-0.11642527,0.108791
 78,0.03382319,0.02756396,-0.02409971,0.73626995,-0.00084377,-0.0005934
 9,0.00036035,0.00023272,0.00106871,0.00136146,0.00011705,0.00024951,-0
 .00021126,0.00534327,-0.00129053,0.00269220,-0.03180991,0.04907786,-0.
 03262779,-0.02213100,-0.03844418,0.03660285,-0.03306505,-0.13289716,0.
 05634534,0.07359381,-0.01115977,0.00009338,-0.03689312,0.51896524,0.00
 066910,0.00018779,0.00001431,-0.00140354,-0.00083292,-0.00099002,-0.00
 004466,0.00005935,0.00028453,-0.00252639,0.00393354,0.00235733,0.02969
 179,-0.03701545,0.02711622,0.01988478,0.03702501,-0.02206540,0.0475441
 3,0.06581200,-0.11762282,-0.05899010,0.00546784,0.00290133,-0.04249015
 ,-0.28936955,0.34628431,-0.00014856,-0.00156281,-0.00111626,-0.0015552
 1,0.00285817,0.00318683,-0.00080662,-0.00044026,0.00017805,0.00463045,
 0.00031730,-0.00311183,-0.02858981,0.03013634,-0.01935211,-0.05786968,
 -0.03256600,0.03084940,0.05706870,-0.01958146,0.00815826,-0.29692310,0
 .12345758,-0.06482801,-0.11321141,-0.01890503,0.02000115,0.73341376,0.
 00054172,-0.00050652,-0.00063098,-0.00065829,0.00121577,0.00073856,-0.
 00046966,-0.00027903,0.00003452,0.00131213,-0.00069792,-0.00308804,0.0
 3044596,-0.03387209,0.02814192,0.01668071,0.05189463,-0.04029257,-0.06
 895763,-0.01928979,0.02227558,0.03968481,-0.12651617,0.04411007,0.0649
 9004,-0.24072372,0.12619998,-0.03060272,0.52239509,-0.00078846,0.00034
 923,0.00067066,0.00125181,-0.00042807,-0.00096911,0.00051533,0.0000960
 0,-0.00006984,-0.00175040,-0.00176266,-0.00036523,-0.01893822,0.027111
 41,-0.01121924,-0.00601990,-0.03507147,0.02635858,0.04470117,0.0161567
 2,-0.01762464,-0.00217475,0.03448392,-0.08639176,-0.04248253,0.1360560
 9,-0.15724214,-0.04657403,-0.28904744,0.34980452,-0.00027748,-0.003542
 98,0.00005517,-0.00118200,0.00567621,0.00229161,-0.00060594,-0.0004630
 0,-0.00020590,0.00915319,-0.00141274,-0.00218237,-0.02474188,0.0106454
 5,-0.00534245,-0.31554826,0.10099573,-0.04584625,-0.00165674,-0.004028
 39,0.00361442,-0.05820234,0.02886198,-0.01432742,0.00632964,-0.0000080
 3,-0.00099382,0.00651863,-0.00434254,0.00299389,0.38787942,-0.00029533
 ,0.00106325,0.00030891,0.00093860,-0.00154949,-0.00154306,0.00051195,0
 .00009737,0.00001103,-0.00077962,0.00147668,-0.00386687,0.04514069,-0.
 01292285,0.01086002,0.10077882,-0.10197341,0.03768211,-0.00570048,0.00
 018084,0.00393726,-0.00749411,0.00757043,0.00169685,-0.00143499,0.0009
 2806,-0.00268330,-0.00114066,-0.00283396,0.00576795,-0.13456089,0.1061
 7012,-0.00067479,0.00054357,-0.00147090,0.00019005,0.00086971,0.000351
 10,-0.00048171,-0.00043928,0.00015245,-0.00056605,-0.00454593,-0.00267
 185,-0.03042789,0.01331987,0.00026644,-0.04517910,0.03713544,-0.060444
 14,0.00472320,0.00375953,0.00150448,0.01247447,-0.00209938,0.00919413,
 0.00022312,-0.00267287,-0.00078502,0.00080942,0.00599557,0.00025642,0.
 06110683,-0.04788436,0.05391570,-0.00016126,0.00023456,0.00051347,0.00
 101087,-0.00051506,-0.00086913,0.00023728,0.00012390,-0.00016663,0.003
 60577,0.00131929,-0.00124914,-0.00101566,0.03748867,-0.02747093,-0.006
 59897,-0.00429065,0.00437061,-0.07737615,0.02633481,-0.01542417,0.0030
 9853,-0.00047477,-0.00031381,0.00717535,-0.02774416,0.02099517,-0.0080
 1006,0.00346367,-0.00101720,-0.00087979,0.00249986,-0.00163448,0.07226
 362,0.00025760,-0.00113981,-0.00080410,-0.00115099,0.00267284,0.001435
 17,-0.00076983,-0.00075277,0.00017104,0.00110427,0.00118608,-0.0065854
 5,0.00336684,-0.02712842,0.02613696,-0.00240946,0.00349584,0.00130971,
 0.02722204,-0.24874784,0.15596726,0.00098641,0.00301389,-0.00451165,0.
 00844222,-0.03253251,0.03038404,0.00033283,0.00620368,-0.00104818,0.00
 337293,-0.00206883,0.00178004,-0.03580412,0.30081354,-0.00056879,0.000
 58653,0.00068401,0.00147420,-0.00090431,-0.00122316,0.00062741,0.00030
 253,-0.00018539,-0.00169292,-0.00500575,-0.00052305,-0.00284320,0.0217
 1741,-0.00792676,0.00311228,0.00121033,0.00304031,-0.01570290,0.155856
 80,-0.15252294,-0.00143247,-0.00429088,0.00053849,-0.00596320,0.034529
 57,-0.01625805,0.00124102,-0.00149260,0.00566476,-0.00230667,0.0018306
 7,-0.00038073,0.02163199,-0.20526256,0.17415518,0.00003516,0.00018652,
 0.00017833,0.00020349,-0.00047982,-0.00050997,0.00005513,0.00008814,-0
 .00003991,0.00008706,-0.00135842,0.00163969,-0.00764076,0.00301709,-0.
 00104471,0.00706403,-0.02771279,0.02085939,0.00287325,-0.00051045,-0.0
 0033064,-0.07612446,0.02637431,-0.01511011,-0.00653694,-0.00411568,0.0
 0433729,-0.00023920,0.03753201,-0.02700914,0.00683330,-0.00166181,-0.0
 0010725,0.00000069,0.00087707,-0.00053640,0.06884335,-0.00028710,0.001
 28090,0.00138350,0.00183253,-0.00257246,-0.00319015,0.00088674,0.00045
 106,-0.00017510,-0.00325312,-0.00092893,0.00420791,0.00086160,0.004157
 13,-0.00014049,0.00876273,-0.03111023,0.02823415,-0.00078299,0.0028123
 0,-0.00421478,0.02651632,-0.25083468,0.15743231,-0.00210826,0.00465617
 ,0.00020891,0.00055234,-0.02964480,0.02822834,-0.00426745,0.00379845,-
 0.00649321,0.00097638,-0.00648035,0.00547455,-0.03459508,0.30261074,0.
 00024693,-0.00105050,-0.00095290,-0.00161502,0.00194265,0.00255514,-0.
 00068389,-0.00028828,0.00011083,0.00266621,0.00144887,-0.00274471,0.00
 071621,-0.00012281,0.00472324,-0.00643403,0.03245343,-0.01518119,-0.00
 008989,-0.00420907,0.00020619,-0.01525541,0.15757114,-0.15112317,0.002
 82360,0.00043598,0.00377095,0.00062713,0.02388008,-0.00965367,0.001871
 39,-0.00685752,-0.00070980,-0.00061445,0.00545606,-0.00301662,0.020474
 97,-0.20537112,0.17245886,-0.00032940,0.00169412,0.00156174,0.00194577
 ,-0.00335106,-0.00415159,0.00118772,0.00046112,-0.00005516,-0.00643273
 ,0.00113245,0.00346715,0.00439018,-0.00274799,0.00203574,0.00524566,-0
 .00149586,0.00014963,-0.05505213,0.02859299,-0.01410647,0.00020564,-0.
 00438363,0.00363074,-0.31768910,0.10341397,-0.04479671,-0.02892169,0.0
 0955840,-0.00288160,-0.00865646,0.00360940,-0.00167619,0.00660786,-0.0
 0433489,0.00175139,-0.00098730,0.00339408,-0.00232586,0.38906260,0.000
 26254,-0.00026022,-0.00049219,-0.00078088,0.00040548,0.00083465,-0.000
 28653,-0.00011147,0.00009959,0.00038281,0.00080502,-0.00069067,-0.0005
 2338,-0.00301617,0.00571661,-0.00129436,0.00132392,-0.00290684,-0.0079
 6676,0.00723697,0.00163840,-0.00629922,0.00042280,0.00382983,0.1032513
 7,-0.10191296,0.03761371,0.04671599,-0.01205824,0.00977352,0.00361200,
 -0.00102722,0.00106811,-0.00170766,0.00394668,-0.00692644,0.00248906,-
 0.00226658,0.00182309,-0.13641204,0.10537912,-0.00003740,-0.00000991,0
 .00005548,0.00020607,-0.00003756,0.00000543,0.00004202,0.00007042,-0.0
 0005565,0.00053939,-0.00016466,0.00066939,0.00055330,0.00585569,-0.000
 06611,-0.00005345,-0.00295465,-0.00066755,0.01318959,-0.00243496,0.008
 64122,0.00511074,0.00355650,0.00125624,-0.04464471,0.03770755,-0.05864
 642,-0.03040173,0.01388300,0.00137363,-0.00162547,0.00110374,0.0002849
 6,-0.00012948,-0.00669273,-0.00053273,-0.00166711,0.00173258,-0.000500
 39,0.05963455,-0.04654905,0.04986850,-0.00044581,0.00180355,0.00146314
 ,0.00274458,-0.00329669,-0.00350250,0.00112621,0.00054380,-0.00023634,
 -0.00674553,-0.00137399,0.00424975,0.00262057,-0.00038917,-0.00005194,
 0.00417611,0.00579783,-0.00446359,-0.00121172,0.00495807,-0.00285054,-
 0.05056028,-0.03237132,0.03094677,-0.01601677,-0.00694254,0.00809265,-
 0.26638830,-0.09974529,0.10067265,-0.00576225,0.00001844,0.00057977,0.
 00027937,-0.00260640,0.00194004,0.00564190,0.00259095,-0.00318387,0.01
 072213,-0.00176765,-0.00062431,0.32117103,-0.00020039,0.00102351,0.000
 72932,0.00135956,-0.00194388,-0.00180524,0.00058591,0.00030791,-0.0001
 0166,-0.00364338,-0.00021999,0.00266946,-0.00034965,0.00093210,-0.0025
 6756,0.00297390,-0.00247453,0.00483312,0.00776427,0.00116968,0.0018294
 4,0.00402962,0.00613315,0.00161200,-0.04347590,-0.01527921,0.02299379,
 -0.09970920,-0.11537475,0.06938242,-0.00061016,0.00108853,-0.00050123,
 -0.00185978,-0.00271281,0.00248093,-0.00011619,0.00420958,-0.00719134,
 0.00101119,0.00108184,-0.00504410,0.13295510,0.12215239,0.00035228,-0.
 00086216,-0.00076914,-0.00154055,0.00146761,0.00174132,-0.00058992,-0.
 00022527,0.00011828,0.00354881,0.00113339,-0.00132474,-0.00017081,-0.0
 0251772,-0.00091514,-0.00227132,0.00460910,0.00163335,-0.00489221,0.00
 219299,0.00356118,0.00386113,0.00580237,0.00397399,0.03504877,0.018704
 22,-0.00914218,0.10060122,0.06940881,-0.10070180,0.00113692,-0.0005001
 1,0.00061245,0.00134013,0.00252837,-0.00171446,-0.00115884,-0.00755549
 ,0.00023651,-0.00256661,-0.00476782,-0.00171015,-0.13337012,-0.0894946
 2,0.10457017,-0.00587083,-0.00992294,0.00447415,-0.01792385,-0.0025084
 7,-0.04076800,-0.16802475,-0.00347828,-0.10011766,-0.00533686,-0.00177
 022,0.00489353,0.00243257,0.00069977,-0.00028304,-0.00075021,0.0002442
 4,-0.00034869,0.00020120,-0.00076554,0.00034157,0.00000601,0.00033319,
 -0.00027557,0.00042086,-0.00014252,0.00008838,0.00041566,0.00020623,-0
 .00018628,0.00027077,-0.00013488,0.00031084,-0.00012222,0.00043494,-0.
 00028168,-0.00004232,-0.00042795,0.00029855,-0.00046154,0.00014156,-0.
 00004275,-0.00053884,-0.00028244,0.00026553,0.17973537,-0.00068372,-0.
 00451259,0.00385932,-0.01779917,0.00336427,-0.02454858,-0.01787360,-0.
 07031309,-0.01429461,-0.00108216,-0.00034028,0.00202750,0.00087965,-0.
 00018317,0.00091226,-0.00033996,0.00010317,-0.00013930,0.00018427,-0.0
 0020931,0.00002785,0.00000999,0.00008347,-0.00010329,0.00015079,-0.000
 08792,0.00003667,0.00015263,0.00007461,-0.00005074,0.00007801,-0.00000
 609,0.00013244,-0.00005992,0.00018944,-0.00009469,-0.00002527,-0.00015
 983,0.00010089,-0.00014680,0.00005344,-0.00002247,-0.00018456,-0.00009
 656,0.00008429,0.02676316,0.06104393,-0.00449303,-0.00347077,0.0012724
 6,-0.00470282,-0.00525065,-0.00861640,-0.10996340,-0.00077261,-0.17382
 963,-0.00145617,0.00049756,0.00339959,0.00005763,0.00039901,0.00093197
 ,-0.00034496,0.00012737,-0.00021051,0.00016113,-0.00034641,0.00010837,
 0.00003383,0.00010651,-0.00008951,0.00011263,-0.00007896,-0.00002447,0
 .00013152,0.00009410,-0.00005706,0.00011067,-0.00003806,0.00014392,-0.
 00004111,0.00017231,-0.00006152,-0.00001769,-0.00015681,0.00009992,-0.
 00016799,0.00004595,-0.00000879,-0.00016538,-0.00009367,0.00007515,0.1
 5012210,0.04473294,0.26723756,-0.00617048,-0.00290724,-0.00206637,0.01
 520550,-0.01933087,0.00846678,-0.07469993,0.04820467,-0.01635726,-0.00
 234183,0.00078092,0.00051981,0.00028875,0.00095376,-0.00072128,-0.0000
 0632,0.00009586,-0.00010163,-0.00004904,-0.00038277,0.00023952,0.00000
 997,0.00012119,-0.00008603,0.00009268,0.00000419,-0.00001799,0.0001074
 6,0.00006082,-0.00006756,0.00004244,-0.00006242,0.00006532,0.00000321,
 0.00010722,-0.00009660,-0.00000270,-0.00011461,0.00008550,-0.00017665,
 0.00004016,-0.00000127,-0.00014318,-0.00007294,0.00007489,-0.00945201,
 0.01922389,-0.02402862,0.08477730,-0.00251702,-0.00072791,-0.00001398,
 0.00543900,-0.01365328,0.00590466,0.06483748,-0.26698544,0.09107663,-0
 .00083882,0.00071381,0.00030324,-0.00069113,0.00041059,-0.00003160,0.0
 0009916,0.00007888,-0.00010082,-0.00000970,-0.00019114,0.00012223,-0.0
 0001333,0.00004358,-0.00003543,0.00001788,0.00000551,-0.00001837,0.000
 02650,0.00001936,-0.00001692,0.00001716,-0.00002255,0.00003625,0.00000
 484,0.00003454,-0.00003058,0.00000520,-0.00002364,0.00001497,-0.000051
 90,0.00000921,0.00000294,-0.00003568,-0.00001930,0.00001823,-0.0038439
 4,0.01282925,-0.00438668,-0.07431273,0.28170771,0.00183336,0.00174116,
 -0.00047083,-0.00232861,0.00787600,0.00295372,-0.02545340,0.08942261,-
 0.08051119,0.00012899,-0.00033440,0.00017100,-0.00019633,-0.00011602,0
 .00002474,-0.00006015,0.00001008,0.00001821,-0.00000703,-0.00001030,0.
 00001158,0.00000246,-0.00000126,0.00000657,0.00000634,0.00000883,0.000
 00491,0.00000083,-0.00000045,-0.00000629,0.00002279,-0.00001129,-0.000
 00676,-0.00000221,-0.00000544,-0.00000432,-0.00000199,-0.00000518,0.00
 000560,-0.00000503,-0.00000193,0.00000077,-0.00000325,-0.00000244,0.00
 000350,-0.02201211,0.02043146,-0.02317531,0.02975985,-0.08645747,0.099
 23993,-0.00016434,0.00019126,0.00027330,-0.01794606,0.02084612,0.02915
 563,-0.15555520,0.06603133,0.07694868,-0.01176959,-0.00545914,0.006580
 49,0.00157704,0.00214190,0.00011107,-0.00122511,0.00039494,-0.00031005
 ,0.00001967,-0.00128097,0.00098842,0.00008519,0.00036876,-0.00033435,0
 .00044676,-0.00010422,-0.00004109,0.00050899,0.00029962,-0.00024476,0.
 00048576,-0.00023258,0.00026445,-0.00011843,0.00057131,-0.00035348,-0.
 00006367,-0.00053711,0.00039193,-0.00066055,0.00014298,-0.00004798,-0.
 00066921,-0.00035951,0.00033070,0.02504098,-0.00924720,-0.00534834,-0.
 00748517,0.01186703,0.01831551,0.16749293,-0.00050514,0.00439803,0.004
 93689,-0.01038403,0.00460924,0.00194842,0.07552854,-0.13324701,-0.0635
 3820,-0.00065472,-0.00005861,0.00110327,-0.00055159,0.00000069,0.00059
 270,0.00009682,0.00000894,-0.00001534,0.00005965,0.00006117,-0.0000354
 0,-0.00000554,-0.00003768,0.00000601,-0.00004791,-0.00002961,-0.000003
 03,-0.00004152,-0.00000614,0.00001989,-0.00002331,0.00003067,-0.000004
 27,0.00001015,0.00000680,0.00001849,0.00000611,0.00004518,-0.00003651,
 0.00005645,-0.00001163,-0.00000233,0.00004556,0.00002235,-0.00002619,-
 0.00554590,-0.00183273,-0.03158111,0.02759092,-0.01422918,-0.03254396,
 -0.08563453,0.14026953,-0.00208917,0.00214998,0.00172233,0.01717144,-0
 .01667101,-0.01767142,0.09528501,-0.06795481,-0.14877272,0.00856668,0.
 00394845,-0.00383012,-0.00099261,-0.00171252,0.00001299,0.00084661,-0.
 00033518,0.00026864,0.00004103,0.00101088,-0.00075666,-0.00001985,-0.0
 0028789,0.00024303,-0.00034372,0.00006262,0.00004264,-0.00040086,-0.00
 021010,0.00017222,-0.00037332,0.00018603,-0.00021285,0.00008135,-0.000
 43085,0.00026698,0.00004408,0.00040009,-0.00028480,0.00050229,-0.00010
 851,0.00003218,0.00050709,0.00027138,-0.00024829,0.00352114,-0.0330919
 2,-0.06719572,0.00433293,-0.00638729,0.00173419,-0.12668013,0.11916066
 ,0.23447739\\0.00000659,0.00000423,0.00000738,0.00000600,-0.00000020,-
 0.00001239,-0.00000071,-0.00001017,-0.00000160,0.00000316,0.00000518,0
 .00000555,-0.00000986,-0.00000373,0.00000713,0.00000886,0.00000085,0.0
 0000615,-0.00000793,0.00000064,-0.00000148,-0.00000749,-0.00000024,-0.
 00000911,-0.00000366,0.00000744,-0.00000173,-0.00000259,-0.00000298,-0
 .00000222,-0.00000765,-0.00000368,-0.00000287,0.00000340,-0.00000174,0
 .00000301,-0.00000301,-0.00000273,-0.00000301,0.00000271,0.00000124,-0
 .00000204,-0.00000025,0.00000096,-0.00000559,0.00000059,-0.00000348,0.
 00000667,0.00000369,0.00000791,0.00000501,0.00000816,0.00000052,0.0000
 0115\\\@


 IF GOD HAD MEANT MAN TO SEE THE SUN RISE, HE
 WOULD HAVE SCHEDULED IT FOR A LATER HOUR.
 Job cpu time:       0 days  2 hours 11 minutes 49.9 seconds.
 Elapsed time:       0 days  0 hours  8 minutes 16.0 seconds.
 File lengths (MBytes):  RWF=    548 Int=      0 D2E=      0 Chk=     30 Scr=      1
 Normal termination of Gaussian 16 at Fri Feb 14 12:51:02 2025.
