 Entering Gaussian System, Link 0=g16
 Input=input.com
 Output=input.log
 Initial command:
 /share/apps/g16.b01_avx2/g16/l1.exe "/scratch/Gau-1914570.inp" -scrdir="/scratch/"
 Entering Link 1 = /share/apps/g16.b01_avx2/g16/l1.exe PID=   1914572.
  
 Copyright (c) 1988-2017, Gaussian, Inc.  All Rights Reserved.
  
 This is part of the Gaussian(R) 16 program.  It is based on
 the Gaussian(R) 09 system (copyright 2009, Gaussian, Inc.),
 the Gaussian(R) 03 system (copyright 2003, Gaussian, Inc.),
 the Gaussian(R) 98 system (copyright 1998, Gaussian, Inc.),
 the Gaussian(R) 94 system (copyright 1995, Gaussian, Inc.),
 the Gaussian 92(TM) system (copyright 1992, Gaussian, Inc.),
 the Gaussian 90(TM) system (copyright 1990, Gaussian, Inc.),
 the Gaussian 88(TM) system (copyright 1988, Gaussian, Inc.),
 the Gaussian 86(TM) system (copyright 1986, Carnegie Mellon
 University), and the Gaussian 82(TM) system (copyright 1983,
 Carnegie Mellon University). Gaussian is a federally registered
 trademark of Gaussian, Inc.
  
 This software contains proprietary and confidential information,
 including trade secrets, belonging to Gaussian, Inc.
  
 This software is provided under written license and may be
 used, copied, transmitted, or stored only in accord with that
 written license.
  
 The following legend is applicable only to US Government
 contracts under FAR:
  
                    RESTRICTED RIGHTS LEGEND
  
 Use, reproduction and disclosure by the US Government is
 subject to restrictions as set forth in subparagraphs (a)
 and (c) of the Commercial Computer Software - Restricted
 Rights clause in FAR 52.227-19.
  
 Gaussian, Inc.
 340 Quinnipiac St., Bldg. 40, Wallingford CT 06492
  
  
 ---------------------------------------------------------------
 Warning -- This program may not be used in any manner that
 competes with the business of Gaussian, Inc. or will provide
 assistance to any competitor of Gaussian, Inc.  The licensee
 of this program is prohibited from giving any competitor of
 Gaussian, Inc. access to this program.  By using this program,
 the user acknowledges that Gaussian, Inc. is engaged in the
 business of creating and licensing software in the field of
 computational chemistry and represents and warrants to the
 licensee that it is not a competitor of Gaussian, Inc. and that
 it will not use this program in any manner prohibited above.
 ---------------------------------------------------------------
  

 Cite this work as:
 Gaussian 16, Revision B.01,
 M. J. Frisch, G. W. Trucks, H. B. Schlegel, G. E. Scuseria, 
 M. A. Robb, J. R. Cheeseman, G. Scalmani, V. Barone, 
 G. A. Petersson, H. Nakatsuji, X. Li, M. Caricato, A. V. Marenich, 
 J. Bloino, B. G. Janesko, R. Gomperts, B. Mennucci, H. P. Hratchian, 
 J. V. Ortiz, A. F. Izmaylov, J. L. Sonnenberg, D. Williams-Young, 
 F. Ding, F. Lipparini, F. Egidi, J. Goings, B. Peng, A. Petrone, 
 T. Henderson, D. Ranasinghe, V. G. Zakrzewski, J. Gao, N. Rega, 
 G. Zheng, W. Liang, M. Hada, M. Ehara, K. Toyota, R. Fukuda, 
 J. Hasegawa, M. Ishida, T. Nakajima, Y. Honda, O. Kitao, H. Nakai, 
 T. Vreven, K. Throssell, J. A. Montgomery, Jr., J. E. Peralta, 
 F. Ogliaro, M. J. Bearpark, J. J. Heyd, E. N. Brothers, K. N. Kudin, 
 V. N. Staroverov, T. A. Keith, R. Kobayashi, J. Normand, 
 K. Raghavachari, A. P. Rendell, J. C. Burant, S. S. Iyengar, 
 J. Tomasi, M. Cossi, J. M. Millam, M. Klene, C. Adamo, R. Cammi, 
 J. W. Ochterski, R. L. Martin, K. Morokuma, O. Farkas, 
 J. B. Foresman, and D. J. Fox, Gaussian, Inc., Wallingford CT, 2016.
 
 ******************************************
 Gaussian 16:  ES64L-G16RevB.01 20-Dec-2017
                29-Aug-2024 
 ******************************************
 %nproc=24
 Will use up to   24 processors via shared memory.
 %mem=64GB
 ----------------------------------------------------------------------
 #P PBE1PBE/def2TZVP opt freq EmpiricalDispersion=GD3 Int=(grid=99590) 
 scrf=(iefpcm, solvent=water)
 ----------------------------------------------------------------------
 1/18=20,19=15,26=6,38=1/1,3;
 2/9=110,12=2,17=6,18=5,40=1/2;
 3/5=44,7=101,11=2,25=1,30=1,70=2201,71=1,72=1,74=-13,75=99590,124=31/1,2,3;
 4//1;
 5/5=2,38=5,53=1/2;
 6/7=2,8=2,9=2,10=2,28=1/1;
 7//1,2,3,16;
 1/18=20,19=15,26=6/3(2);
 2/9=110/2;
 99//99;
 2/9=110/2;
 3/5=44,7=101,11=2,25=1,30=1,70=2205,71=1,72=1,74=-13,75=99590,124=31/1,2,3;
 4/5=5,16=3,69=1/1;
 5/5=2,38=5,53=1/2;
 7//1,2,3,16;
 1/18=20,19=15,26=6/3(-5);
 2/9=110/2;
 6/7=2,8=2,9=2,10=2,19=2,28=1/1;
 99/9=1/99;
 Leave Link    1 at Thu Aug 29 03:56:57 2024, MaxMem=  8589934592 cpu:               0.8 elap:               0.0
 (Enter /share/apps/g16.b01_avx2/g16/l101.exe)
 -------------------
 pfp-betaC_ester int
 -------------------
 Symbolic Z-matrix:
 Charge =  0 Multiplicity = 1
 H                    -2.38383   1.6242    0.15024 
 O                    -1.82159  -0.54909   1.31775 
 C                    -2.28509  -0.50216   0.17075 
 N                    -3.08941   0.92129  -0.05831 
 H                    -3.34124   1.03395  -1.03733 
 C                    -4.24972   1.08753   0.82714 
 H                    -5.04366   0.41513   0.51086 
 H                    -3.93389   0.84095   1.83915 
 H                    -4.60674   2.11529   0.78855 
 C                    -3.18374  -1.59725  -0.36513 
 H                    -4.02774  -1.74637   0.30875 
 H                    -3.5489   -1.38801  -1.37139 
 O                    -1.25518  -0.27146  -0.96263 
 C                     0.01051  -0.12482  -0.55805 
 C                     0.58541   1.13588  -0.42547 
 C                     0.82232  -1.2224   -0.28247 
 C                     1.90823   1.3055   -0.05907 
 C                     2.14596  -1.07126   0.08962 
 C                     2.69328   0.19587   0.201 
 F                    -0.16252   2.21749  -0.64948 
 F                     0.32385  -2.44952  -0.38922 
 F                     2.42537   2.52424   0.05163 
 F                     2.89816  -2.13758   0.34052 
 F                     3.96377   0.34454   0.55525 
 C                    -2.35087  -2.89214  -0.39994 
 H                    -2.25719  -3.28272   0.59181 
 H                    -2.83819  -3.61302  -1.02263 
 H                    -1.37855  -2.68035  -0.79318 
 
 ITRead=  0  0  0  0  0  0  0  0  0  0  0  0  0  0  0  0  0  0  0  0
 ITRead=  0  0  0  0  0  0  0  0
 MicOpt= -1 -1 -1 -1 -1 -1 -1 -1 -1 -1 -1 -1 -1 -1 -1 -1 -1 -1 -1 -1
 MicOpt= -1 -1 -1 -1 -1 -1 -1 -1
 NAtoms=     28 NQM=       28 NQMF=       0 NMMI=      0 NMMIF=      0
                NMic=       0 NMicF=      0.
                    Isotopes and Nuclear Properties:
 (Nuclear quadrupole moments (NQMom) in fm**2, nuclear magnetic moments (NMagM)
  in nuclear magnetons)

  Atom         1           2           3           4           5           6           7           8           9          10
 IAtWgt=           1          16          12          14           1          12           1           1           1          12
 AtmWgt=   1.0078250  15.9949146  12.0000000  14.0030740   1.0078250  12.0000000   1.0078250   1.0078250   1.0078250  12.0000000
 NucSpn=           1           0           0           2           1           0           1           1           1           0
 AtZEff=  -0.0000000  -0.0000000  -0.0000000  -0.0000000  -0.0000000  -0.0000000  -0.0000000  -0.0000000  -0.0000000  -0.0000000
 NQMom=    0.0000000   0.0000000   0.0000000   2.0440000   0.0000000   0.0000000   0.0000000   0.0000000   0.0000000   0.0000000
 NMagM=    2.7928460   0.0000000   0.0000000   0.4037610   2.7928460   0.0000000   2.7928460   2.7928460   2.7928460   0.0000000
 AtZNuc=   1.0000000   8.0000000   6.0000000   7.0000000   1.0000000   6.0000000   1.0000000   1.0000000   1.0000000   6.0000000

  Atom        11          12          13          14          15          16          17          18          19          20
 IAtWgt=           1           1          16          12          12          12          12          12          12          19
 AtmWgt=   1.0078250   1.0078250  15.9949146  12.0000000  12.0000000  12.0000000  12.0000000  12.0000000  12.0000000  18.9984032
 NucSpn=           1           1           0           0           0           0           0           0           0           1
 AtZEff=  -0.0000000  -0.0000000  -0.0000000  -0.0000000  -0.0000000  -0.0000000  -0.0000000  -0.0000000  -0.0000000  -0.0000000
 NQMom=    0.0000000   0.0000000   0.0000000   0.0000000   0.0000000   0.0000000   0.0000000   0.0000000   0.0000000   0.0000000
 NMagM=    2.7928460   2.7928460   0.0000000   0.0000000   0.0000000   0.0000000   0.0000000   0.0000000   0.0000000   2.6288670
 AtZNuc=   1.0000000   1.0000000   8.0000000   6.0000000   6.0000000   6.0000000   6.0000000   6.0000000   6.0000000   9.0000000

  Atom        21          22          23          24          25          26          27          28
 IAtWgt=          19          19          19          19          12           1           1           1
 AtmWgt=  18.9984032  18.9984032  18.9984032  18.9984032  12.0000000   1.0078250   1.0078250   1.0078250
 NucSpn=           1           1           1           1           0           1           1           1
 AtZEff=  -0.0000000  -0.0000000  -0.0000000  -0.0000000  -0.0000000  -0.0000000  -0.0000000  -0.0000000
 NQMom=    0.0000000   0.0000000   0.0000000   0.0000000   0.0000000   0.0000000   0.0000000   0.0000000
 NMagM=    2.6288670   2.6288670   2.6288670   2.6288670   0.0000000   2.7928460   2.7928460   2.7928460
 AtZNuc=   9.0000000   9.0000000   9.0000000   9.0000000   6.0000000   1.0000000   1.0000000   1.0000000
 Leave Link  101 at Thu Aug 29 03:56:57 2024, MaxMem=  8589934592 cpu:               6.4 elap:               0.3
 (Enter /share/apps/g16.b01_avx2/g16/l103.exe)

 GradGradGradGradGradGradGradGradGradGradGradGradGradGradGradGradGradGrad
 Berny optimization.
 Initialization pass.
                           ----------------------------
                           !    Initial Parameters    !
                           ! (Angstroms and Degrees)  !
 --------------------------                            --------------------------
 ! Name  Definition              Value          Derivative Info.                !
 --------------------------------------------------------------------------------
 ! R1    R(1,4)                  1.0176         estimate D2E/DX2                !
 ! R2    R(2,3)                  1.238          estimate D2E/DX2                !
 ! R3    R(3,4)                  1.6509         estimate D2E/DX2                !
 ! R4    R(3,10)                 1.5146         estimate D2E/DX2                !
 ! R5    R(3,13)                 1.5487         estimate D2E/DX2                !
 ! R6    R(4,5)                  1.0171         estimate D2E/DX2                !
 ! R7    R(4,6)                  1.469          estimate D2E/DX2                !
 ! R8    R(6,7)                  1.0874         estimate D2E/DX2                !
 ! R9    R(6,8)                  1.0884         estimate D2E/DX2                !
 ! R10   R(6,9)                  1.0887         estimate D2E/DX2                !
 ! R11   R(10,11)                1.0903         estimate D2E/DX2                !
 ! R12   R(10,12)                1.0907         estimate D2E/DX2                !
 ! R13   R(10,25)                1.54           estimate D2E/DX2                !
 ! R14   R(13,14)                1.3368         estimate D2E/DX2                !
 ! R15   R(14,15)                1.3919         estimate D2E/DX2                !
 ! R16   R(14,16)                1.3927         estimate D2E/DX2                !
 ! R17   R(15,17)                1.3831         estimate D2E/DX2                !
 ! R18   R(15,20)                1.334          estimate D2E/DX2                !
 ! R19   R(16,18)                1.3832         estimate D2E/DX2                !
 ! R20   R(16,21)                1.3288         estimate D2E/DX2                !
 ! R21   R(17,19)                1.3839         estimate D2E/DX2                !
 ! R22   R(17,22)                1.3285         estimate D2E/DX2                !
 ! R23   R(18,19)                1.3848         estimate D2E/DX2                !
 ! R24   R(18,23)                1.3288         estimate D2E/DX2                !
 ! R25   R(19,24)                1.3273         estimate D2E/DX2                !
 ! R26   R(25,26)                1.07           estimate D2E/DX2                !
 ! R27   R(25,27)                1.07           estimate D2E/DX2                !
 ! R28   R(25,28)                1.07           estimate D2E/DX2                !
 ! A1    A(2,3,4)              110.0987         estimate D2E/DX2                !
 ! A2    A(2,3,10)             121.5026         estimate D2E/DX2                !
 ! A3    A(2,3,13)             115.7658         estimate D2E/DX2                !
 ! A4    A(4,3,10)             106.5739         estimate D2E/DX2                !
 ! A5    A(4,3,13)              95.3945         estimate D2E/DX2                !
 ! A6    A(10,3,13)            104.0841         estimate D2E/DX2                !
 ! A7    A(1,4,3)              103.2582         estimate D2E/DX2                !
 ! A8    A(1,4,5)              107.004          estimate D2E/DX2                !
 ! A9    A(1,4,6)              110.2424         estimate D2E/DX2                !
 ! A10   A(3,4,5)              110.4667         estimate D2E/DX2                !
 ! A11   A(3,4,6)              113.4997         estimate D2E/DX2                !
 ! A12   A(5,4,6)              111.8433         estimate D2E/DX2                !
 ! A13   A(4,6,7)              109.3539         estimate D2E/DX2                !
 ! A14   A(4,6,8)              107.794          estimate D2E/DX2                !
 ! A15   A(4,6,9)              110.1501         estimate D2E/DX2                !
 ! A16   A(7,6,8)              110.0113         estimate D2E/DX2                !
 ! A17   A(7,6,9)              109.5119         estimate D2E/DX2                !
 ! A18   A(8,6,9)              109.997          estimate D2E/DX2                !
 ! A19   A(3,10,11)            109.847          estimate D2E/DX2                !
 ! A20   A(3,10,12)            112.7272         estimate D2E/DX2                !
 ! A21   A(3,10,25)            107.1613         estimate D2E/DX2                !
 ! A22   A(11,10,12)           109.7118         estimate D2E/DX2                !
 ! A23   A(11,10,25)           108.5199         estimate D2E/DX2                !
 ! A24   A(12,10,25)           108.7547         estimate D2E/DX2                !
 ! A25   A(3,13,14)            115.1181         estimate D2E/DX2                !
 ! A26   A(13,14,15)           121.2798         estimate D2E/DX2                !
 ! A27   A(13,14,16)           121.6893         estimate D2E/DX2                !
 ! A28   A(15,14,16)           117.0125         estimate D2E/DX2                !
 ! A29   A(14,15,17)           122.0963         estimate D2E/DX2                !
 ! A30   A(14,15,20)           119.1312         estimate D2E/DX2                !
 ! A31   A(17,15,20)           118.771          estimate D2E/DX2                !
 ! A32   A(14,16,18)           121.662          estimate D2E/DX2                !
 ! A33   A(14,16,21)           119.5526         estimate D2E/DX2                !
 ! A34   A(18,16,21)           118.7824         estimate D2E/DX2                !
 ! A35   A(15,17,19)           119.6047         estimate D2E/DX2                !
 ! A36   A(15,17,22)           120.4557         estimate D2E/DX2                !
 ! A37   A(19,17,22)           119.9384         estimate D2E/DX2                !
 ! A38   A(16,18,19)           119.9891         estimate D2E/DX2                !
 ! A39   A(16,18,23)           120.317          estimate D2E/DX2                !
 ! A40   A(19,18,23)           119.6939         estimate D2E/DX2                !
 ! A41   A(17,19,18)           119.6281         estimate D2E/DX2                !
 ! A42   A(17,19,24)           120.2209         estimate D2E/DX2                !
 ! A43   A(18,19,24)           120.1511         estimate D2E/DX2                !
 ! A44   A(10,25,26)           109.4712         estimate D2E/DX2                !
 ! A45   A(10,25,27)           109.4712         estimate D2E/DX2                !
 ! A46   A(10,25,28)           109.4712         estimate D2E/DX2                !
 ! A47   A(26,25,27)           109.4713         estimate D2E/DX2                !
 ! A48   A(26,25,28)           109.4712         estimate D2E/DX2                !
 ! A49   A(27,25,28)           109.4712         estimate D2E/DX2                !
 ! D1    D(2,3,4,1)             56.6794         estimate D2E/DX2                !
 ! D2    D(2,3,4,5)            170.7981         estimate D2E/DX2                !
 ! D3    D(2,3,4,6)            -62.6653         estimate D2E/DX2                !
 ! D4    D(10,3,4,1)          -169.7342         estimate D2E/DX2                !
 ! D5    D(10,3,4,5)           -55.6155         estimate D2E/DX2                !
 ! D6    D(10,3,4,6)            70.9211         estimate D2E/DX2                !
 ! D7    D(13,3,4,1)           -63.2872         estimate D2E/DX2                !
 ! D8    D(13,3,4,5)            50.8315         estimate D2E/DX2                !
 ! D9    D(13,3,4,6)           177.3681         estimate D2E/DX2                !
 ! D10   D(2,3,10,11)           54.5263         estimate D2E/DX2                !
 ! D11   D(2,3,10,12)          177.2075         estimate D2E/DX2                !
 ! D12   D(2,3,10,25)          -63.177          estimate D2E/DX2                !
 ! D13   D(4,3,10,11)          -72.5523         estimate D2E/DX2                !
 ! D14   D(4,3,10,12)           50.1289         estimate D2E/DX2                !
 ! D15   D(4,3,10,25)          169.7445         estimate D2E/DX2                !
 ! D16   D(13,3,10,11)        -172.6774         estimate D2E/DX2                !
 ! D17   D(13,3,10,12)         -49.9961         estimate D2E/DX2                !
 ! D18   D(13,3,10,25)          69.6194         estimate D2E/DX2                !
 ! D19   D(2,3,13,14)           -1.2473         estimate D2E/DX2                !
 ! D20   D(4,3,13,14)          114.1475         estimate D2E/DX2                !
 ! D21   D(10,3,13,14)        -137.2444         estimate D2E/DX2                !
 ! D22   D(1,4,6,7)            172.859          estimate D2E/DX2                !
 ! D23   D(1,4,6,8)            -67.5596         estimate D2E/DX2                !
 ! D24   D(1,4,6,9)             52.4628         estimate D2E/DX2                !
 ! D25   D(3,4,6,7)            -71.8709         estimate D2E/DX2                !
 ! D26   D(3,4,6,8)             47.7105         estimate D2E/DX2                !
 ! D27   D(3,4,6,9)            167.7328         estimate D2E/DX2                !
 ! D28   D(5,4,6,7)             53.937          estimate D2E/DX2                !
 ! D29   D(5,4,6,8)            173.5184         estimate D2E/DX2                !
 ! D30   D(5,4,6,9)            -66.4592         estimate D2E/DX2                !
 ! D31   D(3,10,25,26)          76.2373         estimate D2E/DX2                !
 ! D32   D(3,10,25,27)        -163.7627         estimate D2E/DX2                !
 ! D33   D(3,10,25,28)         -43.7627         estimate D2E/DX2                !
 ! D34   D(11,10,25,26)        -42.3294         estimate D2E/DX2                !
 ! D35   D(11,10,25,27)         77.6706         estimate D2E/DX2                !
 ! D36   D(11,10,25,28)       -162.3294         estimate D2E/DX2                !
 ! D37   D(12,10,25,26)       -161.6304         estimate D2E/DX2                !
 ! D38   D(12,10,25,27)        -41.6304         estimate D2E/DX2                !
 ! D39   D(12,10,25,28)         78.3696         estimate D2E/DX2                !
 ! D40   D(3,13,14,15)         -98.8821         estimate D2E/DX2                !
 ! D41   D(3,13,14,16)          82.7259         estimate D2E/DX2                !
 ! D42   D(13,14,15,17)       -177.409          estimate D2E/DX2                !
 ! D43   D(13,14,15,20)          3.0457         estimate D2E/DX2                !
 ! D44   D(16,14,15,17)          1.0552         estimate D2E/DX2                !
 ! D45   D(16,14,15,20)       -178.4901         estimate D2E/DX2                !
 ! D46   D(13,14,16,18)        177.6349         estimate D2E/DX2                !
 ! D47   D(13,14,16,21)         -1.7371         estimate D2E/DX2                !
 ! D48   D(15,14,16,18)         -0.8226         estimate D2E/DX2                !
 ! D49   D(15,14,16,21)        179.8054         estimate D2E/DX2                !
 ! D50   D(14,15,17,19)         -0.7078         estimate D2E/DX2                !
 ! D51   D(14,15,17,22)        179.6795         estimate D2E/DX2                !
 ! D52   D(20,15,17,19)        178.8391         estimate D2E/DX2                !
 ! D53   D(20,15,17,22)         -0.7736         estimate D2E/DX2                !
 ! D54   D(14,16,18,19)          0.2505         estimate D2E/DX2                !
 ! D55   D(14,16,18,23)       -179.6925         estimate D2E/DX2                !
 ! D56   D(21,16,18,19)        179.6272         estimate D2E/DX2                !
 ! D57   D(21,16,18,23)         -0.3158         estimate D2E/DX2                !
 ! D58   D(15,17,19,18)          0.0882         estimate D2E/DX2                !
 ! D59   D(15,17,19,24)       -179.9114         estimate D2E/DX2                !
 ! D60   D(22,17,19,18)        179.7029         estimate D2E/DX2                !
 ! D61   D(22,17,19,24)         -0.2967         estimate D2E/DX2                !
 ! D62   D(16,18,19,17)          0.1335         estimate D2E/DX2                !
 ! D63   D(16,18,19,24)       -179.8669         estimate D2E/DX2                !
 ! D64   D(23,18,19,17)       -179.9232         estimate D2E/DX2                !
 ! D65   D(23,18,19,24)          0.0764         estimate D2E/DX2                !
 --------------------------------------------------------------------------------
 Trust Radius=3.00D-01 FncErr=5.00D-06 GrdErr=5.00D-06 EigMax=2.50D+02 EigMin=1.00D-04
 Number of steps in this run=    152 maximum allowed number of steps=    168.
 GradGradGradGradGradGradGradGradGradGradGradGradGradGradGradGradGradGrad

 Leave Link  103 at Thu Aug 29 03:56:57 2024, MaxMem=  8589934592 cpu:               0.2 elap:               0.0
 (Enter /share/apps/g16.b01_avx2/g16/l202.exe)
                          Input orientation:                          
 ---------------------------------------------------------------------
 Center     Atomic      Atomic             Coordinates (Angstroms)
 Number     Number       Type             X           Y           Z
 ---------------------------------------------------------------------
      1          1           0       -2.383829    1.624202    0.150237
      2          8           0       -1.821586   -0.549093    1.317749
      3          6           0       -2.285094   -0.502158    0.170750
      4          7           0       -3.089411    0.921294   -0.058314
      5          1           0       -3.341241    1.033951   -1.037329
      6          6           0       -4.249723    1.087525    0.827140
      7          1           0       -5.043664    0.415126    0.510861
      8          1           0       -3.933886    0.840950    1.839147
      9          1           0       -4.606738    2.115293    0.788554
     10          6           0       -3.183739   -1.597254   -0.365134
     11          1           0       -4.027744   -1.746369    0.308745
     12          1           0       -3.548898   -1.388006   -1.371387
     13          8           0       -1.255180   -0.271461   -0.962627
     14          6           0        0.010505   -0.124822   -0.558054
     15          6           0        0.585408    1.135881   -0.425472
     16          6           0        0.822320   -1.222397   -0.282473
     17          6           0        1.908228    1.305495   -0.059071
     18          6           0        2.145960   -1.071257    0.089620
     19          6           0        2.693277    0.195871    0.200995
     20          9           0       -0.162520    2.217487   -0.649477
     21          9           0        0.323848   -2.449521   -0.389216
     22          9           0        2.425365    2.524237    0.051633
     23          9           0        2.898159   -2.137581    0.340520
     24          9           0        3.963765    0.344539    0.555246
     25          6           0       -2.350872   -2.892137   -0.399940
     26          1           0       -2.257193   -3.282723    0.591809
     27          1           0       -2.838192   -3.613024   -1.022629
     28          1           0       -1.378552   -2.680354   -0.793185
 ---------------------------------------------------------------------
                    Distance matrix (angstroms):
                    1          2          3          4          5
     1  H    0.000000
     2  O    2.530299   0.000000
     3  C    2.128750   1.238002   0.000000
     4  N    1.017555   2.379699   1.650943   0.000000
     5  H    1.635649   3.218971   2.221381   1.017143   0.000000
     6  C    2.056157   2.969018   2.611074   1.469008   2.074718
     7  H    2.943915   3.458695   2.926909   2.097444   2.382872
     8  H    2.422515   2.581838   2.702962   2.078449   2.943228
     9  H    2.364306   3.890510   3.552853   2.108341   2.470755
    10  C    3.359054   2.405452   1.514586   2.538921   2.720274
    11  H    3.753442   2.705308   2.145678   2.851601   3.164393
    12  H    3.570171   3.304366   2.181768   2.695952   2.453689
    13  O    2.471002   2.366011   1.548705   2.367456   2.461977
    14  C    3.048540   2.656163   2.437891   3.309619   3.578639
    15  C    3.063701   3.416369   3.358338   3.699344   3.975340
    16  C    4.309264   3.162956   3.221828   4.466240   4.795431
    17  C    4.308960   4.387100   4.572130   5.012385   5.346742
    18  C    5.271448   4.185974   4.468187   5.603682   5.984253
    19  C    5.274439   4.710212   5.027160   5.833778   6.217011
    20  F    2.434285   3.778418   3.546063   3.255193   3.414008
    21  F    4.921153   3.335902   3.303387   4.808558   5.097794
    22  F    4.893683   5.393051   5.600150   5.744064   6.054794
    23  F    6.487420   5.074866   5.437788   6.735487   7.133526
    24  F    6.487952   5.903412   6.317671   7.103266   7.508309
    25  C    4.549846   2.953042   2.458051   3.899282   4.098934
    26  H    4.928381   2.861726   2.812403   4.334629   4.739507
    27  H    5.386149   3.987296   3.377508   4.642527   4.674147
    28  H    4.519937   3.032259   2.548633   4.054497   4.208066
                    6          7          8          9         10
     6  C    0.000000
     7  H    1.087426   0.000000
     8  H    1.088444   1.782492   0.000000
     9  H    1.088694   1.777241   1.783375   0.000000
    10  C    3.125040   2.876867   3.371411   4.139919   0.000000
    11  H    2.889457   2.396874   3.007517   3.934194   1.090272
    12  H    3.384218   3.004741   3.927339   4.249409   1.090720
    13  O    3.743981   4.122521   4.032724   4.471708   2.415381
    14  C    4.640915   5.194107   4.715666   5.305695   3.522566
    15  C    4.994984   5.751753   5.063546   5.421392   4.656193
    16  C    5.682658   6.141712   5.601800   6.462348   4.024408
    17  C    6.225210   7.031812   6.160303   6.619594   5.869221
    18  C    6.790364   7.353739   6.609229   7.499436   5.374864
    19  C    7.027969   7.746247   6.857037   7.570973   6.170504
    20  F    4.490261   5.331084   4.723484   4.672200   4.874512
    21  F    5.908280   6.150327   5.824182   6.821682   3.609724
    22  F    6.871852   7.774679   6.816798   7.082426   6.972979
    23  F    7.856865   8.343733   7.602261   8.637775   6.146494
    24  F    8.251505   9.007815   8.016715   8.754629   7.463543
    25  C    4.577015   4.361040   4.631995   5.619235   1.540000
    26  H    4.808807   4.630881   4.622968   5.890471   2.148263
    27  H    5.244924   4.841662   5.406311   6.262728   2.148263
    28  H    5.006595   4.971477   5.085124   5.993439   2.148263
                   11         12         13         14         15
    11  H    0.000000
    12  H    1.783413   0.000000
    13  O    3.388045   2.583583   0.000000
    14  C    4.437140   3.863482   1.336840   0.000000
    15  C    5.488862   4.935306   2.378426   1.391928   0.000000
    16  C    4.913981   4.507849   2.383882   1.392717   2.374458
    17  C    6.684678   6.225540   3.648336   2.428198   1.383066
    18  C    6.214371   5.887808   3.648925   2.423920   2.751745
    19  C    6.996859   6.629163   4.142792   2.806468   2.391483
    20  F    5.618745   4.998829   2.736207   2.350470   1.333959
    21  F    4.462950   4.133961   2.750650   2.351790   3.595113
    22  F    7.742532   7.281652   4.731919   3.636039   2.353849
    23  F    6.937016   6.712454   4.736119   3.632792   4.080578
    24  F    8.264192   7.946932   5.469989   4.133764   3.605735
    25  C    2.151027   2.154387   2.895704   3.641309   4.984709
    26  H    2.361220   3.018707   3.533837   4.054254   5.351570
    27  H    2.583020   2.361661   3.698050   4.527522   5.884703
    28  H    3.017415   2.591309   2.417995   2.918135   4.307668
                   16         17         18         19         20
    16  C    0.000000
    17  C    2.760316   0.000000
    18  C    1.383228   2.393235   0.000000
    19  C    2.397020   1.383908   1.384765   0.000000
    20  F    3.596860   2.338441   4.085484   3.600807   0.000000
    21  F    1.328797   4.088936   2.334307   3.600089   4.699495
    22  F    4.088844   1.328540   3.606534   2.348483   2.698666
    23  F    2.352613   3.604776   1.328834   2.346581   5.414284
    24  F    3.609119   2.350756   2.350681   1.327304   4.688872
    25  C    3.587615   5.989678   4.876143   5.944776   5.564118
    26  H    3.806930   6.231061   4.952831   6.063044   6.015044
    27  H    4.434217   6.902809   5.704336   6.826572   6.425988
    28  H    2.688922   5.218126   3.973754   5.083390   5.048587
                   21         22         23         24         25
    21  F    0.000000
    22  F    5.417471   0.000000
    23  F    2.693863   4.694629   0.000000
    24  F    4.684845   2.715029   2.709713   0.000000
    25  C    2.711117   7.235570   5.354434   7.159825   0.000000
    26  H    2.884165   7.479233   5.286980   7.201298   1.070000
    27  H    3.428330   8.156289   6.077897   8.026121   1.070000
    28  H    1.764834   6.501636   4.457594   6.285586   1.070000
                   26         27         28
    26  H    0.000000
    27  H    1.747303   0.000000
    28  H    1.747303   1.747303   0.000000
 Stoichiometry    C10H10F5NO2
 Framework group  C1[X(C10H10F5NO2)]
 Deg. of freedom    78
 Full point group                 C1      NOp   1
 Largest Abelian subgroup         C1      NOp   1
 Largest concise Abelian subgroup C1      NOp   1
                         Standard orientation:                         
 ---------------------------------------------------------------------
 Center     Atomic      Atomic             Coordinates (Angstroms)
 Number     Number       Type             X           Y           Z
 ---------------------------------------------------------------------
      1          1           0        2.042513   -2.040085    0.136704
      2          8           0        1.708256    0.147833    1.362958
      3          6           0        2.175314    0.082952    0.218276
      4          7           0        2.822367   -1.412648   -0.046519
      5          1           0        3.070194   -1.524496   -1.026647
      6          6           0        3.948856   -1.729136    0.841649
      7          1           0        4.814297   -1.138611    0.550464
      8          1           0        3.651633   -1.478175    1.858206
      9          1           0        4.192397   -2.788188    0.775678
     10          6           0        3.192970    1.088258   -0.279426
     11          1           0        4.041430    1.125524    0.404255
     12          1           0        3.543220    0.868851   -1.288810
     13          8           0        1.137763   -0.002203   -0.928338
     14          6           0       -0.140328   -0.021394   -0.536858
     15          6           0       -0.850162   -1.215185   -0.444874
     16          6           0       -0.830722    1.149907   -0.235081
     17          6           0       -2.187164   -1.249907   -0.092606
     18          6           0       -2.166587    1.133471    0.123407
     19          6           0       -2.849488   -0.069113    0.194196
     20          9           0       -0.222051   -2.365108   -0.695071
     21          9           0       -0.200769    2.317933   -0.302735
     22          9           0       -2.834799   -2.407681   -0.020877
     23          9           0       -2.800872    2.267919    0.400014
     24          9           0       -4.132072   -0.088382    0.535284
     25          6           0        2.506190    2.466635   -0.282312
     26          1           0        2.445654    2.837059    0.719696
     27          1           0        3.075163    3.147362   -0.880459
     28          1           0        1.520574    2.373188   -0.688180
 ---------------------------------------------------------------------
 Rotational constants (GHZ):           0.6567745           0.3016438           0.2231443
 Leave Link  202 at Thu Aug 29 03:56:57 2024, MaxMem=  8589934592 cpu:               0.0 elap:               0.0
 (Enter /share/apps/g16.b01_avx2/g16/l301.exe)
 Standard basis: def2TZVP (5D, 7F)
 Ernie: Thresh=  0.10000D-02 Tol=  0.10000D-05 Strict=F.
 There are   708 symmetry adapted cartesian basis functions of A   symmetry.
 There are   618 symmetry adapted basis functions of A   symmetry.
   618 basis functions,   998 primitive gaussians,   708 cartesian basis functions
    69 alpha electrons       69 beta electrons
       nuclear repulsion energy      1493.4317343959 Hartrees.
 IExCor= 1009 DFT=T Ex+Corr=PBE1PBE ExCW=0 ScaHFX=  0.250000
 ScaDFX=  0.750000  0.750000  1.000000  1.000000 ScalE2=  1.000000  1.000000
 IRadAn=  99590 IRanWt=     -1 IRanGd=            0 ICorTp=0 IEmpDi=131
 NAtoms=   28 NActive=   28 NUniq=   28 SFac= 1.00D+00 NAtFMM=   60 NAOKFM=F Big=F
 Integral buffers will be    131072 words long.
 Raffenetti 2 integral format.
 Two-electron integral symmetry is turned on.
 R6Disp:  Grimme-D3 Dispersion energy=       -0.0187679549 Hartrees.
 Nuclear repulsion after empirical dispersion term =     1493.4129664411 Hartrees.
 ------------------------------------------------------------------------------
 Polarizable Continuum Model (PCM)
 =================================
 Model                : PCM.
 Atomic radii         : UFF (Universal Force Field).
 Polarization charges : Total charges.
 Charge compensation  : None.
 Solution method      : On-the-fly selection.
 Cavity type          : Scaled VdW (van der Waals Surface) (Alpha=1.100).
 Cavity algorithm     : GePol (No added spheres)
                        Default sphere list used, NSphG=   28.
                        Lebedev-Laikov grids with approx.  5.0 points / Ang**2.
                        Smoothing algorithm: York/Karplus (Gamma=1.0000).
                        Polarization charges: spherical gaussians, with
                                              point-specific exponents (IZeta= 3).
                        Self-potential: point-specific (ISelfS= 7).
                        Self-field    : sphere-specific E.n sum rule (ISelfD= 2).
 1st derivatives      : Analytical E(r).r(x)/FMM algorithm (CHGder, D1EAlg=3).
                        Cavity 1st derivative terms included.
 Solvent              : Water, Eps=  78.355300 Eps(inf)=   1.777849
 ------------------------------------------------------------------------------
 GePol: Number of generator spheres                  =      28
 GePol: Total number of spheres                      =      28
 GePol: Number of exposed spheres                    =      28 (100.00%)
 GePol: Number of points                             =    2240
 GePol: Average weight of points                     =       0.13
 GePol: Minimum weight of points                     =   0.70D-09
 GePol: Maximum weight of points                     =    0.20577
 GePol: Number of points with low weight             =     128
 GePol: Fraction of low-weight points (<1% of avg)   =       5.71%
 GePol: Cavity surface area                          =    285.853 Ang**2
 GePol: Cavity volume                                =    306.559 Ang**3
 Leave Link  301 at Thu Aug 29 03:56:57 2024, MaxMem=  8589934592 cpu:               0.7 elap:               0.0
 (Enter /share/apps/g16.b01_avx2/g16/l302.exe)
 NPDir=0 NMtPBC=     1 NCelOv=     1 NCel=       1 NClECP=     1 NCelD=      1
         NCelK=      1 NCelE2=     1 NClLst=     1 CellRange=     0.0.
 One-electron integrals computed using PRISM.
 One-electron integral symmetry used in STVInt
   1 Symmetry operations used in ECPInt.
 ECPInt:  NShTT=   28441 NPrTT=   88836 LenC2=   25206 LenP2D=   56554.
 LDataN:  DoStor=T MaxTD1= 6 Len=  172
 NBasis=   618 RedAO= T EigKep=  1.40D-05  NBF=   618
 NBsUse=   618 1.00D-06 EigRej= -1.00D+00 NBFU=   618
 Precomputing XC quadrature grid using
 IXCGrd= 4 IRadAn=       99590 IRanWt=          -1 IRanGd=           0 AccXCQ= 0.00D+00.
 Generated NRdTot=       0 NPtTot=           0 NUsed=           0 NTot=          32
 NSgBfM=   699   699   699   699   699 MxSgAt=    28 MxSgA2=    28.
 Leave Link  302 at Thu Aug 29 03:56:57 2024, MaxMem=  8589934592 cpu:              10.6 elap:               0.4
 (Enter /share/apps/g16.b01_avx2/g16/l303.exe)
 DipDrv:  MaxL=1.
 Leave Link  303 at Thu Aug 29 03:56:58 2024, MaxMem=  8589934592 cpu:               1.4 elap:               0.1
 (Enter /share/apps/g16.b01_avx2/g16/l401.exe)
 ExpMin= 9.52D-02 ExpMax= 3.55D+04 ExpMxC= 1.21D+03 IAcc=4 IRadAn=    199590 AccDes= 0.00D+00
 Harris functional with IExCor= 1009 and IRadAn=  199590 diagonalized for initial guess.
 HarFok:  IExCor= 1009 AccDes= 0.00D+00 IRadAn=    199590 IDoV= 1 UseB2=F ITyADJ=14
 ICtDFT=  3500011 ScaDFX=  1.000000  1.000000  1.000000  1.000000
 FoFCou: FMM=F IPFlag=           0 FMFlag=      100000 FMFlg1=           0
         NFxFlg=           0 DoJE=T BraDBF=F KetDBF=T FulRan=T
         wScrn=  0.000000 ICntrl=       500 IOpCl=  0 I1Cent=   200000004 NGrid=           0
         NMat0=    1 NMatS0=      1 NMatT0=    0 NMatD0=    1 NMtDS0=    0 NMtDT0=    0
 Petite list used in FoFCou.
 Harris En= -1090.88237197069    
 JPrj=0 DoOrth=F DoCkMO=F.
 Leave Link  401 at Thu Aug 29 03:57:01 2024, MaxMem=  8589934592 cpu:              75.4 elap:               3.1
 (Enter /share/apps/g16.b01_avx2/g16/l502.exe)
 Integral symmetry usage will be decided dynamically.
 Closed shell SCF:
 Using DIIS extrapolation, IDIIS=  1040.
 NGot=  8589934592 LenX=  8588908934 LenY=  8588406962
 Requested convergence on RMS density matrix=1.00D-08 within 128 cycles.
 Requested convergence on MAX density matrix=1.00D-06.
 Requested convergence on             energy=1.00D-06.
 No special actions if energy rises.
 Fock matrices will be formed incrementally for  20 cycles.

 Cycle   1  Pass 1  IDiag  1:
 FoFJK:  IHMeth= 1 ICntrl=       0 DoSepK=F KAlg= 0 I1Cent=           0 FoldK=F
 IRaf= 830000000 NMat=       1 IRICut=       1 DoRegI=T DoRafI=F ISym2E= 0 IDoP0=0 IntGTp=1.
 FoFCou: FMM=F IPFlag=           0 FMFlag=      100000 FMFlg1=           0
         NFxFlg=           0 DoJE=F BraDBF=F KetDBF=F FulRan=T
         wScrn=  0.000000 ICntrl=         0 IOpCl=  0 I1Cent=           0 NGrid=           0
         NMat0=    1 NMatS0=      1 NMatT0=    0 NMatD0=    1 NMtDS0=    0 NMtDT0=    0
 Symmetry not used in FoFCou.
 Inv3:  Mode=1 IEnd=    15052800.
 Iteration    1 A*A^-1 deviation from unit magnitude is 3.00D-15 for   1177.
 Iteration    1 A*A^-1 deviation from orthogonality  is 1.78D-15 for   2107   2039.
 Iteration    1 A^-1*A deviation from unit magnitude is 3.44D-15 for   1391.
 Iteration    1 A^-1*A deviation from orthogonality  is 2.22D-15 for   2180   1059.
 E= -1090.43884131485    
 DIIS: error= 1.83D-02 at cycle   1 NSaved=   1.
 NSaved= 1 IEnMin= 1 EnMin= -1090.43884131485     IErMin= 1 ErrMin= 1.83D-02
 ErrMax= 1.83D-02  0.00D+00 EMaxC= 1.00D-01 BMatC= 4.17D-01 BMatP= 4.17D-01
 IDIUse=3 WtCom= 8.17D-01 WtEn= 1.83D-01
 Coeff-Com:  0.100D+01
 Coeff-En:   0.100D+01
 Coeff:      0.100D+01
 Gap=     0.265 Goal=   None    Shift=    0.000
 GapD=    0.265 DampG=1.000 DampE=0.500 DampFc=0.5000 IDamp=-1.
 Damping current iteration by 5.00D-01
 RMSDP=4.01D-03 MaxDP=5.80D-01              OVMax= 2.55D-01

 Cycle   2  Pass 1  IDiag  1:
 RMSU=  2.00D-03    CP:  1.01D+00
 E= -1090.56144308612     Delta-E=       -0.122601771269 Rises=F Damp=T
 DIIS: error= 4.26D-03 at cycle   2 NSaved=   2.
 NSaved= 2 IEnMin= 2 EnMin= -1090.56144308612     IErMin= 2 ErrMin= 4.26D-03
 ErrMax= 4.26D-03  0.00D+00 EMaxC= 1.00D-01 BMatC= 4.16D-02 BMatP= 4.17D-01
 IDIUse=3 WtCom= 9.57D-01 WtEn= 4.26D-02
 Coeff-Com:  0.858D-01 0.914D+00
 Coeff-En:   0.188D+00 0.812D+00
 Coeff:      0.902D-01 0.910D+00
 Gap=     0.282 Goal=   None    Shift=    0.000
 RMSDP=1.47D-03 MaxDP=2.29D-01 DE=-1.23D-01 OVMax= 1.73D-01

 Cycle   3  Pass 1  IDiag  1:
 RMSU=  7.53D-04    CP:  9.87D-01  3.72D-01
 E= -1090.72472825671     Delta-E=       -0.163285170593 Rises=F Damp=F
 DIIS: error= 5.09D-03 at cycle   3 NSaved=   3.
 NSaved= 3 IEnMin= 3 EnMin= -1090.72472825671     IErMin= 2 ErrMin= 4.26D-03
 ErrMax= 5.09D-03  0.00D+00 EMaxC= 1.00D-01 BMatC= 3.66D-02 BMatP= 4.16D-02
 IDIUse=3 WtCom= 9.49D-01 WtEn= 5.09D-02
 Coeff-Com: -0.392D-01 0.490D+00 0.549D+00
 Coeff-En:   0.000D+00 0.000D+00 0.100D+01
 Coeff:     -0.372D-01 0.465D+00 0.572D+00
 Gap=     0.245 Goal=   None    Shift=    0.000
 RMSDP=3.85D-04 MaxDP=2.71D-02 DE=-1.63D-01 OVMax= 5.45D-02

 Cycle   4  Pass 1  IDiag  1:
 RMSU=  3.08D-04    CP:  9.86D-01  4.70D-01  8.40D-01
 E= -1090.74682193973     Delta-E=       -0.022093683014 Rises=F Damp=F
 DIIS: error= 1.74D-03 at cycle   4 NSaved=   4.
 NSaved= 4 IEnMin= 4 EnMin= -1090.74682193973     IErMin= 4 ErrMin= 1.74D-03
 ErrMax= 1.74D-03  0.00D+00 EMaxC= 1.00D-01 BMatC= 4.94D-03 BMatP= 3.66D-02
 IDIUse=3 WtCom= 9.83D-01 WtEn= 1.74D-02
 Coeff-Com: -0.332D-01 0.124D+00 0.306D+00 0.603D+00
 Coeff-En:   0.000D+00 0.000D+00 0.107D+00 0.893D+00
 Coeff:     -0.327D-01 0.122D+00 0.303D+00 0.608D+00
 Gap=     0.240 Goal=   None    Shift=    0.000
 RMSDP=1.29D-04 MaxDP=7.31D-03 DE=-2.21D-02 OVMax= 1.53D-02

 Cycle   5  Pass 1  IDiag  1:
 RMSU=  7.81D-05    CP:  9.85D-01  4.69D-01  9.23D-01  7.37D-01
 E= -1090.75043280225     Delta-E=       -0.003610862524 Rises=F Damp=F
 DIIS: error= 4.32D-04 at cycle   5 NSaved=   5.
 NSaved= 5 IEnMin= 5 EnMin= -1090.75043280225     IErMin= 5 ErrMin= 4.32D-04
 ErrMax= 4.32D-04  0.00D+00 EMaxC= 1.00D-01 BMatC= 3.69D-04 BMatP= 4.94D-03
 IDIUse=3 WtCom= 9.96D-01 WtEn= 4.32D-03
 Coeff-Com: -0.151D-01 0.368D-01 0.119D+00 0.319D+00 0.540D+00
 Coeff-En:   0.000D+00 0.000D+00 0.000D+00 0.000D+00 0.100D+01
 Coeff:     -0.151D-01 0.367D-01 0.118D+00 0.318D+00 0.542D+00
 Gap=     0.240 Goal=   None    Shift=    0.000
 RMSDP=4.74D-05 MaxDP=3.25D-03 DE=-3.61D-03 OVMax= 4.71D-03

 Cycle   6  Pass 1  IDiag  1:
 RMSU=  2.18D-05    CP:  9.85D-01  4.62D-01  9.08D-01  7.74D-01  5.41D-01
 E= -1090.75068632433     Delta-E=       -0.000253522078 Rises=F Damp=F
 DIIS: error= 1.39D-04 at cycle   6 NSaved=   6.
 NSaved= 6 IEnMin= 6 EnMin= -1090.75068632433     IErMin= 6 ErrMin= 1.39D-04
 ErrMax= 1.39D-04  0.00D+00 EMaxC= 1.00D-01 BMatC= 3.76D-05 BMatP= 3.69D-04
 IDIUse=3 WtCom= 9.99D-01 WtEn= 1.39D-03
 Coeff-Com: -0.584D-02 0.103D-01 0.388D-01 0.125D+00 0.304D+00 0.528D+00
 Coeff-En:   0.000D+00 0.000D+00 0.000D+00 0.000D+00 0.106D-01 0.989D+00
 Coeff:     -0.583D-02 0.102D-01 0.387D-01 0.125D+00 0.303D+00 0.529D+00
 Gap=     0.240 Goal=   None    Shift=    0.000
 RMSDP=1.52D-05 MaxDP=1.40D-03 DE=-2.54D-04 OVMax= 1.37D-03

 Cycle   7  Pass 1  IDiag  1:
 RMSU=  8.87D-06    CP:  9.85D-01  4.65D-01  9.11D-01  7.55D-01  6.09D-01
                    CP:  6.92D-01
 E= -1090.75071430706     Delta-E=       -0.000027982734 Rises=F Damp=F
 DIIS: error= 2.36D-05 at cycle   7 NSaved=   7.
 NSaved= 7 IEnMin= 7 EnMin= -1090.75071430706     IErMin= 7 ErrMin= 2.36D-05
 ErrMax= 2.36D-05  0.00D+00 EMaxC= 1.00D-01 BMatC= 1.50D-06 BMatP= 3.76D-05
 IDIUse=1 WtCom= 1.00D+00 WtEn= 0.00D+00
 Coeff-Com: -0.117D-02 0.125D-02 0.560D-02 0.245D-01 0.811D-01 0.223D+00
 Coeff-Com:  0.666D+00
 Coeff:     -0.117D-02 0.125D-02 0.560D-02 0.245D-01 0.811D-01 0.223D+00
 Coeff:      0.666D+00
 Gap=     0.240 Goal=   None    Shift=    0.000
 RMSDP=3.06D-06 MaxDP=3.48D-04 DE=-2.80D-05 OVMax= 2.21D-04

 Cycle   8  Pass 1  IDiag  1:
 RMSU=  1.59D-06    CP:  9.85D-01  4.64D-01  9.12D-01  7.60D-01  6.12D-01
                    CP:  7.42D-01  8.66D-01
 E= -1090.75071534670     Delta-E=       -0.000001039640 Rises=F Damp=F
 DIIS: error= 7.53D-06 at cycle   8 NSaved=   8.
 NSaved= 8 IEnMin= 8 EnMin= -1090.75071534670     IErMin= 8 ErrMin= 7.53D-06
 ErrMax= 7.53D-06  0.00D+00 EMaxC= 1.00D-01 BMatC= 1.23D-07 BMatP= 1.50D-06
 IDIUse=1 WtCom= 1.00D+00 WtEn= 0.00D+00
 Coeff-Com: -0.457D-04-0.180D-03-0.700D-03-0.440D-04 0.789D-02 0.473D-01
 Coeff-Com:  0.273D+00 0.672D+00
 Coeff:     -0.457D-04-0.180D-03-0.700D-03-0.440D-04 0.789D-02 0.473D-01
 Coeff:      0.273D+00 0.672D+00
 Gap=     0.240 Goal=   None    Shift=    0.000
 RMSDP=9.48D-07 MaxDP=7.14D-05 DE=-1.04D-06 OVMax= 9.28D-05

 Cycle   9  Pass 1  IDiag  1:
 RMSU=  6.00D-07    CP:  9.85D-01  4.64D-01  9.12D-01  7.59D-01  6.10D-01
                    CP:  7.55D-01  9.06D-01  9.01D-01
 E= -1090.75071542664     Delta-E=       -0.000000079939 Rises=F Damp=F
 DIIS: error= 4.14D-06 at cycle   9 NSaved=   9.
 NSaved= 9 IEnMin= 9 EnMin= -1090.75071542664     IErMin= 9 ErrMin= 4.14D-06
 ErrMax= 4.14D-06  0.00D+00 EMaxC= 1.00D-01 BMatC= 2.23D-08 BMatP= 1.23D-07
 IDIUse=1 WtCom= 1.00D+00 WtEn= 0.00D+00
 Coeff-Com:  0.861D-04-0.217D-03-0.885D-03-0.230D-02-0.362D-02 0.191D-02
 Coeff-Com:  0.667D-01 0.355D+00 0.583D+00
 Coeff:      0.861D-04-0.217D-03-0.885D-03-0.230D-02-0.362D-02 0.191D-02
 Coeff:      0.667D-01 0.355D+00 0.583D+00
 Gap=     0.240 Goal=   None    Shift=    0.000
 RMSDP=2.32D-07 MaxDP=9.92D-06 DE=-7.99D-08 OVMax= 4.45D-05

 Cycle  10  Pass 1  IDiag  1:
 RMSU=  1.42D-07    CP:  9.85D-01  4.64D-01  9.12D-01  7.59D-01  6.10D-01
                    CP:  7.56D-01  9.15D-01  9.56D-01  7.77D-01
 E= -1090.75071544528     Delta-E=       -0.000000018638 Rises=F Damp=F
 DIIS: error= 7.49D-07 at cycle  10 NSaved=  10.
 NSaved=10 IEnMin=10 EnMin= -1090.75071544528     IErMin=10 ErrMin= 7.49D-07
 ErrMax= 7.49D-07  0.00D+00 EMaxC= 1.00D-01 BMatC= 7.65D-10 BMatP= 2.23D-08
 IDIUse=1 WtCom= 1.00D+00 WtEn= 0.00D+00
 Coeff-Com:  0.332D-04-0.767D-04-0.328D-03-0.906D-03-0.176D-02-0.970D-03
 Coeff-Com:  0.169D-01 0.120D+00 0.240D+00 0.627D+00
 Coeff:      0.332D-04-0.767D-04-0.328D-03-0.906D-03-0.176D-02-0.970D-03
 Coeff:      0.169D-01 0.120D+00 0.240D+00 0.627D+00
 Gap=     0.240 Goal=   None    Shift=    0.000
 RMSDP=5.88D-08 MaxDP=2.60D-06 DE=-1.86D-08 OVMax= 8.28D-06

 Cycle  11  Pass 1  IDiag  1:
 RMSU=  4.67D-08    CP:  9.85D-01  4.64D-01  9.12D-01  7.59D-01  6.10D-01
                    CP:  7.57D-01  9.17D-01  9.62D-01  7.97D-01  9.12D-01
 E= -1090.75071544587     Delta-E=       -0.000000000588 Rises=F Damp=F
 DIIS: error= 3.43D-07 at cycle  11 NSaved=  11.
 NSaved=11 IEnMin=11 EnMin= -1090.75071544587     IErMin=11 ErrMin= 3.43D-07
 ErrMax= 3.43D-07  0.00D+00 EMaxC= 1.00D-01 BMatC= 1.70D-10 BMatP= 7.65D-10
 IDIUse=1 WtCom= 1.00D+00 WtEn= 0.00D+00
 Coeff-Com:  0.359D-05-0.384D-05-0.375D-04-0.110D-03-0.365D-03-0.831D-03
 Coeff-Com: -0.276D-02 0.261D-02 0.248D-01 0.327D+00 0.650D+00
 Coeff:      0.359D-05-0.384D-05-0.375D-04-0.110D-03-0.365D-03-0.831D-03
 Coeff:     -0.276D-02 0.261D-02 0.248D-01 0.327D+00 0.650D+00
 Gap=     0.240 Goal=   None    Shift=    0.000
 RMSDP=3.43D-08 MaxDP=4.08D-06 DE=-5.88D-10 OVMax= 3.38D-06

 Cycle  12  Pass 1  IDiag  1:
 RMSU=  1.36D-08    CP:  9.85D-01  4.64D-01  9.12D-01  7.59D-01  6.10D-01
                    CP:  7.57D-01  9.17D-01  9.69D-01  8.08D-01  9.91D-01
                    CP:  8.79D-01
 E= -1090.75071544599     Delta-E=       -0.000000000121 Rises=F Damp=F
 DIIS: error= 6.47D-08 at cycle  12 NSaved=  12.
 NSaved=12 IEnMin=12 EnMin= -1090.75071544599     IErMin=12 ErrMin= 6.47D-08
 ErrMax= 6.47D-08  0.00D+00 EMaxC= 1.00D-01 BMatC= 8.07D-12 BMatP= 1.70D-10
 IDIUse=1 WtCom= 1.00D+00 WtEn= 0.00D+00
 Coeff-Com: -0.109D-05 0.404D-05 0.620D-05 0.201D-04-0.289D-04-0.212D-03
 Coeff-Com: -0.225D-02-0.727D-02-0.772D-02 0.898D-01 0.259D+00 0.669D+00
 Coeff:     -0.109D-05 0.404D-05 0.620D-05 0.201D-04-0.289D-04-0.212D-03
 Coeff:     -0.225D-02-0.727D-02-0.772D-02 0.898D-01 0.259D+00 0.669D+00
 Gap=     0.240 Goal=   None    Shift=    0.000
 RMSDP=6.92D-09 MaxDP=6.13D-07 DE=-1.21D-10 OVMax= 8.24D-07

 Error on total polarization charges =  0.01029
 SCF Done:  E(RPBE1PBE) =  -1090.75071545     A.U. after   12 cycles
            NFock= 12  Conv=0.69D-08     -V/T= 2.0037
 KE= 1.086730580690D+03 PE=-5.559834568667D+03 EE= 1.888940306090D+03
 Leave Link  502 at Thu Aug 29 03:58:33 2024, MaxMem=  8589934592 cpu:            2205.6 elap:              92.4
 (Enter /share/apps/g16.b01_avx2/g16/l601.exe)
 Copying SCF densities to generalized density rwf, IOpCl= 0 IROHF=0.

 **********************************************************************

            Population analysis using the SCF Density.

 **********************************************************************

 Orbital symmetries:
       Occupied  (A) (A) (A) (A) (A) (A) (A) (A) (A) (A) (A) (A)
                 (A) (A) (A) (A) (A) (A) (A) (A) (A) (A) (A) (A)
                 (A) (A) (A) (A) (A) (A) (A) (A) (A) (A) (A) (A)
                 (A) (A) (A) (A) (A) (A) (A) (A) (A) (A) (A) (A)
                 (A) (A) (A) (A) (A) (A) (A) (A) (A) (A) (A) (A)
                 (A) (A) (A) (A) (A) (A) (A) (A) (A)
       Virtual   (A) (A) (A) (A) (A) (A) (A) (A) (A) (A) (A) (A)
                 (A) (A) (A) (A) (A) (A) (A) (A) (A) (A) (A) (A)
                 (A) (A) (A) (A) (A) (A) (A) (A) (A) (A) (A) (A)
                 (A) (A) (A) (A) (A) (A) (A) (A) (A) (A) (A) (A)
                 (A) (A) (A) (A) (A) (A) (A) (A) (A) (A) (A) (A)
                 (A) (A) (A) (A) (A) (A) (A) (A) (A) (A) (A) (A)
                 (A) (A) (A) (A) (A) (A) (A) (A) (A) (A) (A) (A)
                 (A) (A) (A) (A) (A) (A) (A) (A) (A) (A) (A) (A)
                 (A) (A) (A) (A) (A) (A) (A) (A) (A) (A) (A) (A)
                 (A) (A) (A) (A) (A) (A) (A) (A) (A) (A) (A) (A)
                 (A) (A) (A) (A) (A) (A) (A) (A) (A) (A) (A) (A)
                 (A) (A) (A) (A) (A) (A) (A) (A) (A) (A) (A) (A)
                 (A) (A) (A) (A) (A) (A) (A) (A) (A) (A) (A) (A)
                 (A) (A) (A) (A) (A) (A) (A) (A) (A) (A) (A) (A)
                 (A) (A) (A) (A) (A) (A) (A) (A) (A) (A) (A) (A)
                 (A) (A) (A) (A) (A) (A) (A) (A) (A) (A) (A) (A)
                 (A) (A) (A) (A) (A) (A) (A) (A) (A) (A) (A) (A)
                 (A) (A) (A) (A) (A) (A) (A) (A) (A) (A) (A) (A)
                 (A) (A) (A) (A) (A) (A) (A) (A) (A) (A) (A) (A)
                 (A) (A) (A) (A) (A) (A) (A) (A) (A) (A) (A) (A)
                 (A) (A) (A) (A) (A) (A) (A) (A) (A) (A) (A) (A)
                 (A) (A) (A) (A) (A) (A) (A) (A) (A) (A) (A) (A)
                 (A) (A) (A) (A) (A) (A) (A) (A) (A) (A) (A) (A)
                 (A) (A) (A) (A) (A) (A) (A) (A) (A) (A) (A) (A)
                 (A) (A) (A) (A) (A) (A) (A) (A) (A) (A) (A) (A)
                 (A) (A) (A) (A) (A) (A) (A) (A) (A) (A) (A) (A)
                 (A) (A) (A) (A) (A) (A) (A) (A) (A) (A) (A) (A)
                 (A) (A) (A) (A) (A) (A) (A) (A) (A) (A) (A) (A)
                 (A) (A) (A) (A) (A) (A) (A) (A) (A) (A) (A) (A)
                 (A) (A) (A) (A) (A) (A) (A) (A) (A) (A) (A) (A)
                 (A) (A) (A) (A) (A) (A) (A) (A) (A) (A) (A) (A)
                 (A) (A) (A) (A) (A) (A) (A) (A) (A) (A) (A) (A)
                 (A) (A) (A) (A) (A) (A) (A) (A) (A) (A) (A) (A)
                 (A) (A) (A) (A) (A) (A) (A) (A) (A) (A) (A) (A)
                 (A) (A) (A) (A) (A) (A) (A) (A) (A) (A) (A) (A)
                 (A) (A) (A) (A) (A) (A) (A) (A) (A) (A) (A) (A)
                 (A) (A) (A) (A) (A) (A) (A) (A) (A) (A) (A) (A)
                 (A) (A) (A) (A) (A) (A) (A) (A) (A) (A) (A) (A)
                 (A) (A) (A) (A) (A) (A) (A) (A) (A) (A) (A) (A)
                 (A) (A) (A) (A) (A) (A) (A) (A) (A) (A) (A) (A)
                 (A) (A) (A) (A) (A) (A) (A) (A) (A) (A) (A) (A)
                 (A) (A) (A) (A) (A) (A) (A) (A) (A) (A) (A) (A)
                 (A) (A) (A) (A) (A) (A) (A) (A) (A) (A) (A) (A)
                 (A) (A) (A) (A) (A) (A) (A) (A) (A) (A) (A) (A)
                 (A) (A) (A) (A) (A) (A) (A) (A) (A) (A) (A) (A)
                 (A) (A) (A) (A) (A) (A) (A) (A) (A)
 The electronic state is 1-A.
 Alpha  occ. eigenvalues --  -24.81608 -24.81500 -24.81447 -24.81381 -24.81176
 Alpha  occ. eigenvalues --  -19.22870 -19.14771 -14.46706 -10.35600 -10.34091
 Alpha  occ. eigenvalues --  -10.33956 -10.33906 -10.33421 -10.33385 -10.30891
 Alpha  occ. eigenvalues --  -10.26409 -10.21850 -10.19024  -1.30815  -1.30210
 Alpha  occ. eigenvalues --   -1.29605  -1.28830  -1.28445  -1.10697  -1.03173
 Alpha  occ. eigenvalues --   -0.98392  -0.92497  -0.81178  -0.80809  -0.78833
 Alpha  occ. eigenvalues --   -0.73586  -0.70061  -0.69430  -0.66749  -0.63062
 Alpha  occ. eigenvalues --   -0.62458  -0.61022  -0.59181  -0.58056  -0.57404
 Alpha  occ. eigenvalues --   -0.56648  -0.55566  -0.55370  -0.54561  -0.52679
 Alpha  occ. eigenvalues --   -0.51714  -0.50382  -0.49841  -0.49430  -0.48737
 Alpha  occ. eigenvalues --   -0.48129  -0.47111  -0.46903  -0.44900  -0.44559
 Alpha  occ. eigenvalues --   -0.43593  -0.42919  -0.41824  -0.41467  -0.40737
 Alpha  occ. eigenvalues --   -0.37686  -0.36647  -0.36151  -0.35117  -0.32285
 Alpha  occ. eigenvalues --   -0.29122  -0.27199  -0.26541  -0.25858
 Alpha virt. eigenvalues --   -0.01836  -0.01202  -0.00963   0.03699   0.06281
 Alpha virt. eigenvalues --    0.07710   0.08042   0.08579   0.10145   0.11106
 Alpha virt. eigenvalues --    0.11647   0.11955   0.12832   0.13424   0.13831
 Alpha virt. eigenvalues --    0.14162   0.15907   0.16149   0.16626   0.18464
 Alpha virt. eigenvalues --    0.18636   0.19241   0.19644   0.20100   0.20802
 Alpha virt. eigenvalues --    0.21306   0.21652   0.23166   0.23704   0.24506
 Alpha virt. eigenvalues --    0.25124   0.26383   0.26522   0.27107   0.27698
 Alpha virt. eigenvalues --    0.28800   0.29193   0.29694   0.30850   0.31494
 Alpha virt. eigenvalues --    0.32033   0.33184   0.33885   0.34912   0.35397
 Alpha virt. eigenvalues --    0.36346   0.37154   0.38813   0.39174   0.39576
 Alpha virt. eigenvalues --    0.40049   0.40154   0.40947   0.41056   0.42228
 Alpha virt. eigenvalues --    0.42551   0.43292   0.43522   0.43674   0.44141
 Alpha virt. eigenvalues --    0.44569   0.44955   0.45478   0.46215   0.46257
 Alpha virt. eigenvalues --    0.46923   0.47270   0.48012   0.49578   0.50127
 Alpha virt. eigenvalues --    0.50913   0.51179   0.51475   0.52907   0.53654
 Alpha virt. eigenvalues --    0.54945   0.55685   0.56533   0.58045   0.58336
 Alpha virt. eigenvalues --    0.58792   0.60600   0.62107   0.62640   0.63962
 Alpha virt. eigenvalues --    0.64415   0.65361   0.67000   0.67589   0.68247
 Alpha virt. eigenvalues --    0.69380   0.70960   0.71089   0.72705   0.73143
 Alpha virt. eigenvalues --    0.73962   0.75360   0.75680   0.76790   0.77871
 Alpha virt. eigenvalues --    0.78714   0.79582   0.80006   0.83059   0.83140
 Alpha virt. eigenvalues --    0.84098   0.84783   0.85607   0.86197   0.86640
 Alpha virt. eigenvalues --    0.87780   0.88187   0.88522   0.89254   0.89844
 Alpha virt. eigenvalues --    0.90394   0.92147   0.93240   0.94861   0.95883
 Alpha virt. eigenvalues --    0.96591   0.97713   0.98384   0.99365   0.99744
 Alpha virt. eigenvalues --    1.00413   1.01175   1.02770   1.03709   1.04210
 Alpha virt. eigenvalues --    1.06455   1.07332   1.08154   1.09897   1.10235
 Alpha virt. eigenvalues --    1.11091   1.11581   1.12857   1.13649   1.15494
 Alpha virt. eigenvalues --    1.16174   1.17021   1.18140   1.19812   1.20294
 Alpha virt. eigenvalues --    1.20781   1.22414   1.24644   1.25999   1.27509
 Alpha virt. eigenvalues --    1.28540   1.32575   1.33396   1.34096   1.35142
 Alpha virt. eigenvalues --    1.36327   1.38388   1.39226   1.41615   1.42245
 Alpha virt. eigenvalues --    1.43291   1.45098   1.45806   1.46764   1.47811
 Alpha virt. eigenvalues --    1.47915   1.50279   1.51426   1.53952   1.53976
 Alpha virt. eigenvalues --    1.56100   1.56847   1.57498   1.58128   1.60027
 Alpha virt. eigenvalues --    1.60729   1.62190   1.62824   1.63360   1.65286
 Alpha virt. eigenvalues --    1.66189   1.67555   1.68692   1.71391   1.72671
 Alpha virt. eigenvalues --    1.72718   1.74626   1.74892   1.75286   1.77140
 Alpha virt. eigenvalues --    1.79359   1.80368   1.81836   1.82297   1.83547
 Alpha virt. eigenvalues --    1.84670   1.85283   1.86519   1.87597   1.89179
 Alpha virt. eigenvalues --    1.90850   1.92077   1.94045   1.95788   1.96500
 Alpha virt. eigenvalues --    1.96870   1.97448   1.99227   2.00231   2.00826
 Alpha virt. eigenvalues --    2.02595   2.03167   2.04420   2.05210   2.05699
 Alpha virt. eigenvalues --    2.06254   2.08345   2.09879   2.11214   2.12132
 Alpha virt. eigenvalues --    2.14422   2.15613   2.16237   2.16553   2.18633
 Alpha virt. eigenvalues --    2.19346   2.20853   2.21515   2.22423   2.24746
 Alpha virt. eigenvalues --    2.25948   2.26962   2.28848   2.29858   2.31053
 Alpha virt. eigenvalues --    2.32315   2.32680   2.34231   2.35100   2.35556
 Alpha virt. eigenvalues --    2.36321   2.38606   2.40917   2.42439   2.43048
 Alpha virt. eigenvalues --    2.43692   2.45966   2.47096   2.48639   2.49603
 Alpha virt. eigenvalues --    2.50451   2.51586   2.51773   2.53162   2.54413
 Alpha virt. eigenvalues --    2.56973   2.57412   2.58141   2.58854   2.59826
 Alpha virt. eigenvalues --    2.61042   2.61834   2.62429   2.63347   2.63762
 Alpha virt. eigenvalues --    2.64632   2.65608   2.66314   2.67482   2.69202
 Alpha virt. eigenvalues --    2.70204   2.70876   2.72718   2.74028   2.76498
 Alpha virt. eigenvalues --    2.77896   2.78229   2.78508   2.81644   2.81773
 Alpha virt. eigenvalues --    2.82499   2.83700   2.84594   2.85606   2.86099
 Alpha virt. eigenvalues --    2.87637   2.89219   2.89932   2.90827   2.92005
 Alpha virt. eigenvalues --    2.92313   2.93449   2.94334   2.95142   2.95462
 Alpha virt. eigenvalues --    2.96599   2.97331   2.99300   3.00052   3.00795
 Alpha virt. eigenvalues --    3.01295   3.02939   3.04724   3.06187   3.07198
 Alpha virt. eigenvalues --    3.08084   3.08478   3.09456   3.10594   3.11883
 Alpha virt. eigenvalues --    3.12712   3.13243   3.14821   3.15728   3.16256
 Alpha virt. eigenvalues --    3.18135   3.18689   3.18961   3.20315   3.21214
 Alpha virt. eigenvalues --    3.22011   3.22675   3.22870   3.23900   3.24723
 Alpha virt. eigenvalues --    3.25232   3.26467   3.29327   3.30619   3.31141
 Alpha virt. eigenvalues --    3.32003   3.32875   3.33691   3.35406   3.36718
 Alpha virt. eigenvalues --    3.39280   3.39768   3.41833   3.43905   3.44214
 Alpha virt. eigenvalues --    3.44229   3.45174   3.45475   3.46192   3.47177
 Alpha virt. eigenvalues --    3.48217   3.48738   3.49049   3.51196   3.51446
 Alpha virt. eigenvalues --    3.51930   3.54404   3.55051   3.57485   3.57657
 Alpha virt. eigenvalues --    3.59030   3.60442   3.62524   3.63858   3.64198
 Alpha virt. eigenvalues --    3.65626   3.66820   3.69174   3.71121   3.72310
 Alpha virt. eigenvalues --    3.74682   3.75780   3.77233   3.78364   3.80535
 Alpha virt. eigenvalues --    3.82284   3.83310   3.84906   3.85864   3.87952
 Alpha virt. eigenvalues --    3.89086   3.91471   3.94544   3.95044   3.97372
 Alpha virt. eigenvalues --    3.99075   4.01582   4.03490   4.06329   4.07521
 Alpha virt. eigenvalues --    4.08320   4.09749   4.12215   4.13609   4.14050
 Alpha virt. eigenvalues --    4.15734   4.16452   4.16616   4.17622   4.19571
 Alpha virt. eigenvalues --    4.19759   4.22044   4.22598   4.23308   4.25120
 Alpha virt. eigenvalues --    4.29688   4.31981   4.34510   4.35928   4.39325
 Alpha virt. eigenvalues --    4.40115   4.42515   4.43894   4.44667   4.47893
 Alpha virt. eigenvalues --    4.50253   4.50835   4.52725   4.57748   4.59445
 Alpha virt. eigenvalues --    4.62198   4.63604   4.70541   4.70997   4.74571
 Alpha virt. eigenvalues --    4.79434   4.80948   4.83895   4.85664   4.86612
 Alpha virt. eigenvalues --    4.87287   4.88797   4.91059   4.92556   4.99576
 Alpha virt. eigenvalues --    5.00505   5.03368   5.09415   5.12506   5.16418
 Alpha virt. eigenvalues --    5.18092   5.23533   5.26624   5.30195   5.32180
 Alpha virt. eigenvalues --    5.37779   5.39342   5.43654   5.44716   5.46931
 Alpha virt. eigenvalues --    5.51711   5.55489   5.58441   5.62501   5.67581
 Alpha virt. eigenvalues --    5.70913   5.76500   5.85208   5.87597   5.94521
 Alpha virt. eigenvalues --    6.06874   6.25429   6.32461   6.38731   6.41930
 Alpha virt. eigenvalues --    6.43579   6.52760   6.62006   6.74956   6.80585
 Alpha virt. eigenvalues --    6.84867   6.85181   6.85400   6.85730   6.85848
 Alpha virt. eigenvalues --    6.86513   6.87001   6.87118   6.87444   6.88695
 Alpha virt. eigenvalues --    6.91594   6.94017   6.96587   6.97685   7.00855
 Alpha virt. eigenvalues --    7.03028   7.05109   7.06828   7.07789   7.10473
 Alpha virt. eigenvalues --    7.11074   7.13066   7.14794   7.17286   7.19860
 Alpha virt. eigenvalues --    7.21112   7.24256   7.26920   7.29555   7.29731
 Alpha virt. eigenvalues --    7.32825   7.35754   7.37086   7.41365   7.43766
 Alpha virt. eigenvalues --    7.46718   7.50638   7.67047   7.67415   7.75543
 Alpha virt. eigenvalues --    8.09041   8.30928   8.33454   8.35887   8.37961
 Alpha virt. eigenvalues --    8.42836   8.43852   8.54440   8.57123   8.61038
 Alpha virt. eigenvalues --    8.69464   8.72839   8.77123   8.77445   8.80424
 Alpha virt. eigenvalues --    8.81018   8.87473   8.90036   8.93298   8.94734
 Alpha virt. eigenvalues --    9.02380   9.04226   9.07940   9.09945   9.13674
 Alpha virt. eigenvalues --    9.40267  22.28578  22.42942  22.53825  22.60336
 Alpha virt. eigenvalues --   22.97806  22.98878  23.04994  23.13720  23.15364
 Alpha virt. eigenvalues --   23.75646  32.30489  44.25806  44.59866  57.20668
 Alpha virt. eigenvalues --   57.40513  57.47034  57.55328  57.65890
          Condensed to atoms (all electrons):
               1          2          3          4          5          6
     1  H    0.422318   0.005740  -0.015326   0.344095  -0.019928  -0.017869
     2  O    0.005740   8.062519   0.682927  -0.085876   0.005044  -0.010458
     3  C   -0.015326   0.682927   4.696694   0.172141  -0.011811  -0.036131
     4  N    0.344095  -0.085876   0.172141   6.263341   0.348737   0.274435
     5  H   -0.019928   0.005044  -0.011811   0.348737   0.413499  -0.021555
     6  C   -0.017869  -0.010458  -0.036131   0.274435  -0.021555   4.913386
     7  H    0.006093   0.000353  -0.009960  -0.030797  -0.005418   0.412870
     8  H   -0.003304   0.017848   0.000328  -0.038899   0.006651   0.402108
     9  H   -0.007236  -0.000066   0.006613  -0.019911  -0.003717   0.400192
    10  C    0.011136  -0.110982   0.328848  -0.087853  -0.000002   0.011252
    11  H   -0.000337   0.002600  -0.031800  -0.000659   0.000156   0.001054
    12  H   -0.000487   0.006647  -0.009879   0.006878  -0.001050  -0.002106
    13  O   -0.003303  -0.085099   0.208717  -0.040801   0.003494   0.004706
    14  C   -0.004123  -0.038686  -0.139136   0.032591  -0.000274  -0.000526
    15  C    0.000646   0.035685  -0.003347  -0.013391   0.002261   0.000553
    16  C    0.000316   0.033121  -0.007084   0.005273  -0.000579  -0.000103
    17  C   -0.001060  -0.004493   0.000603  -0.000133   0.000027   0.000074
    18  C    0.000102  -0.005519   0.006432  -0.000166  -0.000033  -0.000006
    19  C   -0.000029   0.000460   0.000235  -0.000023   0.000007   0.000000
    20  F    0.009934  -0.000646  -0.000474  -0.001929   0.000169  -0.000071
    21  F   -0.000004  -0.000901  -0.002645  -0.000082  -0.000001  -0.000004
    22  F   -0.000017  -0.000001   0.000036  -0.000001  -0.000000   0.000000
    23  F   -0.000000  -0.000000   0.000035   0.000000   0.000000   0.000000
    24  F    0.000000  -0.000000  -0.000001   0.000000   0.000000  -0.000000
    25  C   -0.000780   0.004306  -0.018409   0.009476  -0.000359   0.000010
    26  H   -0.000017   0.009440  -0.005573   0.000817  -0.000060  -0.000160
    27  H    0.000010   0.000581   0.008695  -0.000064  -0.000061   0.000000
    28  H   -0.000016  -0.002236  -0.010543   0.000770   0.000139  -0.000111
               7          8          9         10         11         12
     1  H    0.006093  -0.003304  -0.007236   0.011136  -0.000337  -0.000487
     2  O    0.000353   0.017848  -0.000066  -0.110982   0.002600   0.006647
     3  C   -0.009960   0.000328   0.006613   0.328848  -0.031800  -0.009879
     4  N   -0.030797  -0.038899  -0.019911  -0.087853  -0.000659   0.006878
     5  H   -0.005418   0.006651  -0.003717  -0.000002   0.000156  -0.001050
     6  C    0.412870   0.402108   0.400192   0.011252   0.001054  -0.002106
     7  H    0.489452  -0.019515  -0.018229   0.007225  -0.003351  -0.000581
     8  H   -0.019515   0.492370  -0.019225  -0.002065   0.000178  -0.000051
     9  H   -0.018229  -0.019225   0.489747  -0.001588   0.000501   0.000124
    10  C    0.007225  -0.002065  -0.001588   5.144944   0.400249   0.354804
    11  H   -0.003351   0.000178   0.000501   0.400249   0.552829  -0.025780
    12  H   -0.000581  -0.000051   0.000124   0.354804  -0.025780   0.583297
    13  O    0.000007   0.000920  -0.000023  -0.070782   0.005182   0.002056
    14  C    0.000056  -0.000740   0.000065   0.008108  -0.000130   0.000167
    15  C    0.000006   0.000194  -0.000068   0.008692   0.000076  -0.001247
    16  C    0.000001  -0.000170  -0.000001  -0.005170  -0.000301   0.000389
    17  C   -0.000002   0.000015  -0.000001  -0.000590  -0.000004   0.000035
    18  C   -0.000000   0.000011  -0.000000   0.000312  -0.000019   0.000023
    19  C    0.000000   0.000001  -0.000000   0.000026   0.000004  -0.000006
    20  F   -0.000010   0.000010   0.000019   0.000048  -0.000000  -0.000004
    21  F    0.000000   0.000001  -0.000000   0.000847  -0.000036  -0.000143
    22  F    0.000000  -0.000000   0.000000   0.000000   0.000000   0.000000
    23  F   -0.000000  -0.000000   0.000000   0.000000  -0.000000   0.000000
    24  F   -0.000000  -0.000000   0.000000   0.000000  -0.000000  -0.000000
    25  C   -0.000042  -0.000306   0.000010   0.281668  -0.020388  -0.020053
    26  H   -0.000008  -0.000007   0.000004  -0.036385  -0.006337   0.008181
    27  H    0.000003  -0.000015  -0.000001  -0.031780  -0.001549  -0.009566
    28  H   -0.000013   0.000014   0.000007  -0.047110   0.005934  -0.000668
              13         14         15         16         17         18
     1  H   -0.003303  -0.004123   0.000646   0.000316  -0.001060   0.000102
     2  O   -0.085099  -0.038686   0.035685   0.033121  -0.004493  -0.005519
     3  C    0.208717  -0.139136  -0.003347  -0.007084   0.000603   0.006432
     4  N   -0.040801   0.032591  -0.013391   0.005273  -0.000133  -0.000166
     5  H    0.003494  -0.000274   0.002261  -0.000579   0.000027  -0.000033
     6  C    0.004706  -0.000526   0.000553  -0.000103   0.000074  -0.000006
     7  H    0.000007   0.000056   0.000006   0.000001  -0.000002  -0.000000
     8  H    0.000920  -0.000740   0.000194  -0.000170   0.000015   0.000011
     9  H   -0.000023   0.000065  -0.000068  -0.000001  -0.000001  -0.000000
    10  C   -0.070782   0.008108   0.008692  -0.005170  -0.000590   0.000312
    11  H    0.005182  -0.000130   0.000076  -0.000301  -0.000004  -0.000019
    12  H    0.002056   0.000167  -0.001247   0.000389   0.000035   0.000023
    13  O    8.097755   0.291708  -0.037210  -0.041688   0.009042   0.008533
    14  C    0.291708   5.423045   0.119123   0.182823   0.024740   0.027339
    15  C   -0.037210   0.119123   5.309019   0.039402   0.267504  -0.034575
    16  C   -0.041688   0.182823   0.039402   5.301596  -0.017307   0.220645
    17  C    0.009042   0.024740   0.267504  -0.017307   4.999856  -0.042882
    18  C    0.008533   0.027339  -0.034575   0.220645  -0.042882   5.057187
    19  C    0.000767  -0.000515  -0.064391  -0.090135   0.403630   0.413194
    20  F   -0.001078  -0.039067   0.242521   0.006157  -0.029851  -0.000142
    21  F    0.001954  -0.036314   0.008044   0.218429  -0.000161  -0.023216
    22  F   -0.000059   0.009040  -0.055347  -0.001336   0.295935   0.007209
    23  F   -0.000063   0.009724  -0.001337  -0.061638   0.006938   0.303606
    24  F   -0.000001  -0.001044   0.009115   0.010957  -0.046062  -0.046938
    25  C   -0.020428  -0.005626  -0.000848   0.000585   0.000175  -0.001033
    26  H    0.001543   0.000294  -0.000417   0.000233   0.000019   0.000302
    27  H    0.000104  -0.000502  -0.000018   0.000578   0.000002  -0.000014
    28  H    0.016278   0.009042   0.001678  -0.013527  -0.000333  -0.005797
              19         20         21         22         23         24
     1  H   -0.000029   0.009934  -0.000004  -0.000017  -0.000000   0.000000
     2  O    0.000460  -0.000646  -0.000901  -0.000001  -0.000000  -0.000000
     3  C    0.000235  -0.000474  -0.002645   0.000036   0.000035  -0.000001
     4  N   -0.000023  -0.001929  -0.000082  -0.000001   0.000000   0.000000
     5  H    0.000007   0.000169  -0.000001  -0.000000   0.000000   0.000000
     6  C    0.000000  -0.000071  -0.000004   0.000000   0.000000  -0.000000
     7  H    0.000000  -0.000010   0.000000   0.000000  -0.000000  -0.000000
     8  H    0.000001   0.000010   0.000001  -0.000000  -0.000000  -0.000000
     9  H   -0.000000   0.000019  -0.000000   0.000000   0.000000   0.000000
    10  C    0.000026   0.000048   0.000847   0.000000   0.000000   0.000000
    11  H    0.000004  -0.000000  -0.000036   0.000000  -0.000000  -0.000000
    12  H   -0.000006  -0.000004  -0.000143   0.000000   0.000000  -0.000000
    13  O    0.000767  -0.001078   0.001954  -0.000059  -0.000063  -0.000001
    14  C   -0.000515  -0.039067  -0.036314   0.009040   0.009724  -0.001044
    15  C   -0.064391   0.242521   0.008044  -0.055347  -0.001337   0.009115
    16  C   -0.090135   0.006157   0.218429  -0.001336  -0.061638   0.010957
    17  C    0.403630  -0.029851  -0.000161   0.295935   0.006938  -0.046062
    18  C    0.413194  -0.000142  -0.023216   0.007209   0.303606  -0.046938
    19  C    4.960085   0.006892   0.006074  -0.045810  -0.046148   0.282936
    20  F    0.006892   8.997049  -0.000032   0.000602   0.000000  -0.000027
    21  F    0.006074  -0.000032   9.030624   0.000000  -0.000292  -0.000024
    22  F   -0.045810   0.000602   0.000000   8.963212  -0.000028   0.001132
    23  F   -0.046148   0.000000  -0.000292  -0.000028   8.963065   0.000913
    24  F    0.282936  -0.000027  -0.000024   0.001132   0.000913   8.962730
    25  C    0.000202   0.000002  -0.028643  -0.000000   0.000018  -0.000000
    26  H   -0.000019   0.000000  -0.000785   0.000000   0.000004   0.000000
    27  H   -0.000006  -0.000000   0.001713  -0.000000  -0.000001   0.000000
    28  H    0.000340  -0.000018   0.004619   0.000000  -0.000192   0.000000
              25         26         27         28
     1  H   -0.000780  -0.000017   0.000010  -0.000016
     2  O    0.004306   0.009440   0.000581  -0.002236
     3  C   -0.018409  -0.005573   0.008695  -0.010543
     4  N    0.009476   0.000817  -0.000064   0.000770
     5  H   -0.000359  -0.000060  -0.000061   0.000139
     6  C    0.000010  -0.000160   0.000000  -0.000111
     7  H   -0.000042  -0.000008   0.000003  -0.000013
     8  H   -0.000306  -0.000007  -0.000015   0.000014
     9  H    0.000010   0.000004  -0.000001   0.000007
    10  C    0.281668  -0.036385  -0.031780  -0.047110
    11  H   -0.020388  -0.006337  -0.001549   0.005934
    12  H   -0.020053   0.008181  -0.009566  -0.000668
    13  O   -0.020428   0.001543   0.000104   0.016278
    14  C   -0.005626   0.000294  -0.000502   0.009042
    15  C   -0.000848  -0.000417  -0.000018   0.001678
    16  C    0.000585   0.000233   0.000578  -0.013527
    17  C    0.000175   0.000019   0.000002  -0.000333
    18  C   -0.001033   0.000302  -0.000014  -0.005797
    19  C    0.000202  -0.000019  -0.000006   0.000340
    20  F    0.000002   0.000000  -0.000000  -0.000018
    21  F   -0.028643  -0.000785   0.001713   0.004619
    22  F   -0.000000   0.000000  -0.000000   0.000000
    23  F    0.000018   0.000004  -0.000001  -0.000192
    24  F   -0.000000   0.000000   0.000000   0.000000
    25  C    4.998380   0.401141   0.396745   0.416187
    26  H    0.401141   0.562083  -0.024573  -0.018546
    27  H    0.396745  -0.024573   0.558920  -0.022209
    28  H    0.416187  -0.018546  -0.022209   0.530460
 Mulliken charges:
               1
     1  H    0.273444
     2  O   -0.522308
     3  C    0.189813
     4  N   -0.137968
     5  H    0.284663
     6  C   -0.331542
     7  H    0.171859
     8  H    0.163649
     9  H    0.172783
    10  C   -0.163855
    11  H    0.121925
    12  H    0.109021
    13  O   -0.352231
    14  C    0.128820
    15  C    0.167677
    16  C    0.218535
    17  C    0.134283
    18  C    0.115444
    19  C    0.172229
    20  F   -0.190054
    21  F   -0.179022
    22  F   -0.174567
    23  F   -0.174605
    24  F   -0.173685
    25  C   -0.391991
    26  H    0.108826
    27  H    0.123007
    28  H    0.135851
 Sum of Mulliken charges =  -0.00000
 Mulliken charges with hydrogens summed into heavy atoms:
               1
     2  O   -0.522308
     3  C    0.189813
     4  N    0.420139
     6  C    0.176748
    10  C    0.067091
    13  O   -0.352231
    14  C    0.128820
    15  C    0.167677
    16  C    0.218535
    17  C    0.134283
    18  C    0.115444
    19  C    0.172229
    20  F   -0.190054
    21  F   -0.179022
    22  F   -0.174567
    23  F   -0.174605
    24  F   -0.173685
    25  C   -0.024307
 Electronic spatial extent (au):  <R**2>=           4623.8085
 Charge=             -0.0000 electrons
 Dipole moment (field-independent basis, Debye):
    X=              7.1297    Y=             -4.8231    Z=             -2.7492  Tot=              9.0362
 Quadrupole moment (field-independent basis, Debye-Ang):
   XX=            -81.1702   YY=            -99.1860   ZZ=           -104.5152
   XY=            -14.7928   XZ=             -2.5892   YZ=             -1.8625
 Traceless Quadrupole moment (field-independent basis, Debye-Ang):
   XX=             13.7869   YY=             -4.2288   ZZ=             -9.5580
   XY=            -14.7928   XZ=             -2.5892   YZ=             -1.8625
 Octapole moment (field-independent basis, Debye-Ang**2):
  XXX=            103.5180  YYY=            -31.3763  ZZZ=             -7.2429  XYY=             27.2019
  XXY=            -48.4998  XXZ=            -11.6914  XZZ=            -18.0737  YZZ=             -7.1534
  YYZ=              2.3911  XYZ=             -1.6525
 Hexadecapole moment (field-independent basis, Debye-Ang**3):
 XXXX=          -3368.9419 YYYY=          -1495.8242 ZZZZ=           -308.7736 XXXY=           -180.5311
 XXXZ=              9.6439 YYYX=            -90.1974 YYYZ=              2.3665 ZZZX=            -36.5425
 ZZZY=             12.7468 XXYY=           -794.9385 XXZZ=           -639.1544 YYZZ=           -287.2387
 XXYZ=            -10.6549 YYXZ=              0.0784 ZZXY=            -17.6478
 N-N= 1.493412966441D+03 E-N=-5.559834540873D+03  KE= 1.086730580690D+03
 No NMR shielding tensors so no spin-rotation constants.
 Leave Link  601 at Thu Aug 29 03:58:33 2024, MaxMem=  8589934592 cpu:               4.6 elap:               0.2
 (Enter /share/apps/g16.b01_avx2/g16/l701.exe)
 ... and contract with generalized density number  0.
 Compute integral first derivatives.
 R6Disp: Adding Grimme-D3 dispersion energy 1st derivatives to the gradient.
   1 Symmetry operations used in ECPInt.
 ECPInt:  NShTT=   28441 NPrTT=   88836 LenC2=   25206 LenP2D=   56554.
 LDataN:  DoStor=T MaxTD1= 7 Len=  274
 D1PCM: PCM CHGder 1st derivatives, ID1Alg=3 FixD1E=F DoIter=F DoCFld=F I1PDM=0.
 GePol: Maximum number of non-zero 1st derivatives   =     208
 Leave Link  701 at Thu Aug 29 03:58:35 2024, MaxMem=  8589934592 cpu:              38.8 elap:               1.6
 (Enter /share/apps/g16.b01_avx2/g16/l702.exe)
 L702 exits ... SP integral derivatives will be done elsewhere.
 Leave Link  702 at Thu Aug 29 03:58:35 2024, MaxMem=  8589934592 cpu:               0.3 elap:               0.0
 (Enter /share/apps/g16.b01_avx2/g16/l703.exe)
 Integral derivatives from FoFJK, PRISM(SPDF).
 Compute integral first derivatives, UseDBF=F ICtDFT=           0.
 Calling FoFJK, ICntrl=      2127 FMM=F ISym2X=0 I1Cent= 0 IOpClX= 0 NMat=1 NMatS=1 NMatT=0.
 FoFJK:  IHMeth= 1 ICntrl=    2127 DoSepK=F KAlg= 0 I1Cent=           0 FoldK=F
 IRaf=         0 NMat=       1 IRICut=       1 DoRegI=T DoRafI=F ISym2E= 0 IDoP0=0 IntGTp=1.
 FoFCou: FMM=F IPFlag=           0 FMFlag=      100000 FMFlg1=         800
         NFxFlg=           0 DoJE=F BraDBF=F KetDBF=F FulRan=T
         wScrn=  0.000000 ICntrl=      2127 IOpCl=  0 I1Cent=           0 NGrid=           0
         NMat0=    1 NMatS0=      1 NMatT0=    0 NMatD0=    1 NMtDS0=    0 NMtDT0=    0
 Symmetry not used in FoFCou.
 Leave Link  703 at Thu Aug 29 03:59:15 2024, MaxMem=  8589934592 cpu:             956.3 elap:              39.9
 (Enter /share/apps/g16.b01_avx2/g16/l716.exe)
 Dipole        = 2.80505176D+00-1.89754929D+00-1.08160584D+00
 ***** Axes restored to original set *****
 -------------------------------------------------------------------
 Center     Atomic                   Forces (Hartrees/Bohr)
 Number     Number              X              Y              Z
 -------------------------------------------------------------------
      1        1           0.000091859    0.000482742   -0.000337177
      2        8           0.001756236   -0.000665113   -0.000031282
      3        6          -0.006273711    0.005146261    0.000983418
      4        7           0.000087605    0.001978934    0.000716720
      5        1           0.000027728   -0.000338376   -0.000098085
      6        6           0.000663027   -0.000178187   -0.000537046
      7        1           0.000040669   -0.000109859    0.000109684
      8        1          -0.000018927   -0.000144539   -0.000043891
      9        1           0.000027563    0.000036465   -0.000070376
     10        6           0.011418003   -0.015785183   -0.000516969
     11        1          -0.002221510    0.004636629   -0.000518087
     12        1          -0.000808811    0.004644050    0.000305609
     13        8           0.000503081    0.001465631    0.000315371
     14        6          -0.000964265   -0.000134223   -0.000334548
     15        6          -0.000636902    0.000430126    0.000431506
     16        6           0.002534525    0.002869326    0.000355256
     17        6          -0.000068215    0.000205349   -0.000127149
     18        6           0.000485324   -0.000124234    0.000419842
     19        6           0.000105717   -0.000269005    0.000095446
     20        9           0.000092157   -0.000434434   -0.000037509
     21        9           0.020391163    0.002214015    0.002668565
[...]
 004546,0.00382983,-0.01253960,-0.00027775,-0.04116758,0.00182241,-0.00
 049756,-0.00216389,-0.00622862,-0.01340509,0.00755864,-0.00296198,0.00
 275350,0.00300866,0.00016113,0.00099329,0.00023639,0.01513785,0.000770
 08,0.02815006,0.00022719,-0.00014788,-0.00007851,-0.00046805,-0.000050
 73,0.00095958,0.00206457,-0.00028781,-0.00230699,-0.00031937,0.0002657
 6,0.00014141,0.00005078,-0.00004086,0.00004965,0.00005956,0.00008958,-
 0.00015691,-0.00002038,-0.00000862,0.00002134,0.00000819,-0.00002573,-
 0.00000117,-0.00005411,0.00002649,0.00004694,-0.00025558,0.00010320,0.
 00033141,-0.00014177,-0.00011296,-0.00002247,0.00002890,0.00001636,-0.
 00000648,-0.00357000,-0.00301771,0.00038677,-0.00315953,0.00728906,-0.
 00307074,-0.01106736,-0.05144446,-0.00071381,0.00283771,0.00121472,0.0
 0167484,-0.09936918,-0.08863061,-0.01216851,-0.00705890,-0.00069617,-0
 .00375740,0.00898719,0.01799681,-0.00172422,0.00359748,0.00026630,0.00
 291677,-0.00079388,-0.00316292,-0.00028177,0.10038236,0.00050543,-0.00
 025080,-0.00016798,-0.00115842,-0.00006296,0.00146767,0.00373718,-0.00
 014490,-0.00336443,-0.00072949,0.00049753,0.00030962,0.00008974,-0.000
 06554,0.00009902,0.00012103,0.00018463,-0.00032384,-0.00004435,-0.0000
 1563,0.00004300,0.00001962,-0.00005236,-0.00000238,-0.00011249,0.00005
 139,0.00009634,-0.00034230,0.00014013,0.00047641,-0.00023083,-0.000166
 83,-0.00004423,0.00003687,0.00002124,-0.00002964,-0.00589071,-0.002269
 46,0.00048435,0.00432510,0.00217205,0.00195521,-0.00829743,-0.03509549
 ,0.00198189,0.00149697,0.00551175,-0.00067952,-0.08854331,-0.32964905,
 0.00274458,0.00163311,0.00463321,0.00033297,-0.02619568,-0.05473081,-0
 .00196640,-0.00198890,0.01029989,-0.00231131,-0.00296507,-0.00919467,-
 0.00003416,0.11796715,0.40648844,0.00002624,-0.00004527,-0.00000316,0.
 00016141,-0.00010329,0.00016120,0.00015865,0.00001118,-0.00054336,-0.0
 0002260,0.00005281,0.00002706,0.00000655,-0.00001153,0.00000867,0.0000
 0345,0.00001349,-0.00002172,-0.00000255,-0.00000072,0.00000360,-0.0000
 0017,-0.00000201,0.00000200,-0.00000699,0.00000125,0.00000816,-0.00008
 192,0.00000744,0.00006881,-0.00002940,-0.00002574,-0.00000478,0.000009
 12,0.00000587,0.00000661,-0.00055629,-0.00080878,0.00051338,-0.0030896
 0,0.00294658,0.00339524,-0.00545774,-0.01277478,0.00747303,0.00165063,
 -0.00061305,-0.00205112,-0.01199061,0.00258074,-0.03892240,-0.00402998
 ,-0.00042118,0.00291863,0.00323392,0.01321678,0.00760166,0.00312388,-0
 .00142430,-0.00423795,-0.00021365,0.00002104,0.00083167,0.01363325,-0.
 00269904,0.02634158,0.00042239,-0.00019804,-0.00016335,-0.00086039,-0.
 00014459,0.00127698,0.00322044,0.00035042,-0.00302418,-0.00071105,0.00
 031845,0.00039431,0.00010293,-0.00007482,0.00007737,0.00009613,0.00017
 620,-0.00027856,-0.00004206,-0.00001210,0.00003583,0.00001519,-0.00003
 672,0.00000200,-0.00009599,0.00004023,0.00008745,-0.00020736,0.0000719
 7,0.00029528,-0.00015865,-0.00012089,-0.00002236,0.00003547,0.00001689
 ,-0.00000677,-0.00610606,0.00127302,-0.00029788,0.00148745,-0.00893297
 ,-0.00028992,0.00357623,-0.00062423,0.00221826,-0.03147884,0.04934858,
 -0.01889204,-0.00520367,-0.00370218,-0.00269964,-0.17451774,0.12682297
 ,-0.06069830,-0.00046528,0.00015697,-0.00273369,-0.00364735,0.00463502
 ,-0.00190203,0.00357984,-0.00166502,0.00324369,0.00133786,0.00179535,-
 0.00001467,0.20125765,-0.00052150,0.00015436,0.00017856,0.00081081,0.0
 0012075,-0.00103544,-0.00259910,-0.00020561,0.00226799,0.00053289,-0.0
 0027461,-0.00026969,-0.00007414,0.00004703,-0.00007399,-0.00008932,-0.
 00011057,0.00025557,0.00004242,0.00000956,-0.00003787,-0.00001362,0.00
 003235,-0.00000154,0.00007695,-0.00003626,-0.00007004,0.00019137,-0.00
 006502,-0.00027085,0.00014258,0.00010275,0.00002702,-0.00002337,-0.000
 00879,0.00001862,0.00403712,0.00101315,-0.00019204,-0.00540581,-0.0022
 4221,-0.00107233,-0.00128676,0.00361878,-0.00119728,0.00579359,-0.0099
 6186,0.00411317,-0.00608945,0.00217748,-0.00188174,0.12707460,-0.23020
 111,0.06399072,0.04434823,-0.04325773,0.02027809,0.00472577,-0.0055903
 3,0.00213241,0.00010161,0.01060649,-0.00159894,0.00067694,-0.00558415,
 0.00096310,-0.16964666,0.27462895,0.00018341,-0.00007160,-0.00007446,-
 0.00056632,0.00003565,0.00048452,0.00134822,-0.00008010,-0.00111644,-0
 .00029296,0.00019638,0.00012080,0.00004054,-0.00002644,0.00003437,0.00
 004500,0.00006589,-0.00011622,-0.00001780,-0.00000563,0.00001529,0.000
 00714,-0.00001850,0.,-0.00003940,0.00001765,0.00003593,-0.00009297,0.0
 0002649,0.00014059,-0.00007233,-0.00005316,-0.00001248,0.00001080,0.00
 000539,-0.00001033,-0.00245638,0.00042196,0.00013108,-0.00066267,-0.00
 239825,0.00492111,0.00225556,-0.00090815,-0.00190816,-0.01383061,0.018
 56858,0.00131312,-0.00230942,-0.00110280,0.00355076,-0.06075306,0.0635
 9396,-0.06241729,-0.00769598,0.00583062,0.00469683,-0.00202972,0.00224
 974,0.00009425,0.00308673,-0.00208488,-0.00416837,0.00008664,0.0013335
 9,0.00068093,0.07879832,-0.08448064,0.05730953,0.00053652,-0.00035292,
 -0.00019446,-0.00099199,-0.00027063,0.00230653,0.00533557,0.00077922,-
 0.00515181,-0.00111251,0.00052055,0.00052863,0.00012289,-0.00008382,0.
 00013363,0.00016612,0.00030890,-0.00044575,-0.00005819,-0.00002503,0.0
 0005084,0.00002624,-0.00006899,0.00000066,-0.00016086,0.00006558,0.000
 14296,-0.00041740,0.00019369,0.00059261,-0.00029553,-0.00022376,-0.000
 07885,0.00005412,0.00001847,-0.00004034,-0.01096677,-0.00306220,-0.001
 00165,0.00477388,0.00114051,0.00279517,0.00396079,-0.00012511,0.000341
 79,0.00290008,0.00331650,-0.00125127,-0.04811390,-0.01743309,-0.016773
 34,-0.03809939,-0.00369638,-0.01496947,-0.32251198,-0.05612389,-0.0904
 2617,-0.00441203,0.00267958,-0.00191451,-0.00228460,-0.00392743,-0.000
 65189,0.00675547,0.00488074,0.00349607,0.00844357,-0.00288983,0.004990
 30,0.39650092,0.00004787,-0.00010172,0.00000770,-0.00019601,-0.0000054
 3,0.00051745,0.00122807,0.00007299,-0.00119537,-0.00024453,0.00015033,
 0.00009295,0.00001957,-0.00001923,0.00002631,0.00003567,0.00008080,-0.
 00008768,-0.00000837,-0.00000619,0.00000634,0.00000710,-0.00001702,-0.
 00000098,-0.00003556,0.00001268,0.00003192,-0.00009439,0.00003976,0.00
 013305,-0.00006496,-0.00004583,-0.00001653,0.00000910,0.00000454,-0.00
 000989,-0.00256808,-0.00046457,-0.00006653,0.00078588,0.00296640,-0.00
 026310,-0.00258250,-0.00801163,0.00051564,0.00610641,-0.00544491,0.003
 01542,0.02654123,0.00917856,0.00878638,-0.04765725,-0.00447149,-0.0145
 1949,-0.05606843,-0.08531177,-0.01297966,0.00166631,0.00077137,0.00054
 229,-0.00301685,-0.00179272,-0.00080051,0.00166780,0.00720880,-0.00090
 276,0.00011042,0.00505470,-0.00113584,0.07434576,0.08013813,0.00014940
 ,-0.00010324,-0.00006619,-0.00007194,-0.00007013,0.00085758,0.00160689
 ,0.00022538,-0.00209758,-0.00037225,0.00018606,0.00018119,0.00003677,-
 0.00002263,0.00003997,0.00004422,0.00010174,-0.00014447,-0.00001823,-0
 .00000662,0.00001593,0.00000982,-0.00002245,0.00000090,-0.00005101,0.0
 0001800,0.00004630,-0.00016939,0.00007125,0.00023886,-0.00009743,-0.00
 008405,-0.00003125,0.00001367,0.00000593,-0.00001386,-0.00408003,-0.00
 086079,0.00090533,0.00279522,-0.00035298,-0.00184197,0.00066685,0.0014
 5067,0.00427918,-0.00121453,0.00214782,0.00345375,-0.02218034,-0.00607
 054,0.00135967,-0.01015741,0.00003312,0.00460501,-0.09038157,-0.012988
 94,-0.06315367,-0.00203814,0.00088191,0.00006868,-0.00063717,-0.001112
 12,0.00057458,0.00404156,0.00030393,-0.00425889,0.00459692,-0.00205546
 ,-0.00369975,0.11754252,0.01830545,0.05868782,0.00091118,-0.00106748,-
 0.00003419,-0.00065803,-0.00051389,-0.00070534,0.01138588,-0.01577302,
 0.00329423,-0.00198347,-0.00681393,-0.00165082,-0.00029812,0.00009089,
 -0.00029956,-0.00077325,-0.00031011,0.00051683,0.00036913,-0.00001299,
 -0.00010849,0.00006794,0.00003599,-0.00003101,0.00045692,0.00007514,-0
 .00020400,-0.09382160,0.04197894,-0.00212203,-0.00897643,0.02852859,-0
 .00085173,-0.00271222,0.00694380,0.00049899,-0.00052404,-0.00010549,-0
 .00037777,0.00019247,0.00006446,0.00014473,-0.00004574,0.00005458,-0.0
 0004537,-0.00017865,-0.00034852,-0.00008626,0.00007297,0.00008512,0.00
 001667,0.00005581,-0.00006518,0.00004160,0.00008659,0.00004414,0.00002
 986,-0.00005424,-0.00003714,0.00003677,-0.00039228,-0.00004204,0.00018
 419,-0.00005446,-0.00009599,-0.00000585,-0.00007878,0.00007661,-0.0000
 3970,-0.00012971,-0.00002751,-0.00004968,0.56581064,0.00047703,-0.0002
 1449,0.00004496,0.00159233,0.00107697,0.00345299,-0.00016876,-0.031551
 37,-0.00521589,-0.00171629,-0.00040888,-0.00097633,-0.00005076,0.00012
 531,0.00009794,-0.00021217,0.00002613,0.00009876,0.00017435,-0.0000399
 4,-0.00007151,0.00005821,-0.00001412,-0.00001967,0.00016161,0.00003629
 ,-0.00004119,0.04501432,-0.18748488,0.00219737,0.00137916,-0.00403868,
 -0.00002884,0.00339978,-0.01076141,-0.00057566,0.00184423,0.00018216,-
 0.00070635,-0.00014825,0.00053142,-0.00007836,0.00023625,-0.00009082,0
 .00008591,0.00014348,0.00059344,0.00003334,-0.00002619,0.00001744,0.00
 000518,-0.00005892,-0.00009011,-0.00008604,-0.00003552,0.00002242,-0.0
 0002875,-0.00004089,0.00002017,-0.00001144,-0.00085415,-0.00046565,-0.
 00015149,0.00003533,0.00002578,0.00001309,0.00003060,-0.00001858,0.000
 02287,0.00004075,0.00000057,0.00002462,0.03216358,0.49079826,0.0004455
 8,-0.00045756,0.00030443,-0.00083871,0.00031746,-0.00041413,0.00652742
 ,-0.01093811,0.00061698,-0.00113574,-0.00263998,-0.00025498,-0.0000621
 4,-0.00069011,-0.00027050,-0.00008375,0.00002763,0.00031643,-0.0001690
 7,0.00009855,-0.00004768,0.00000399,0.00003442,0.00000736,0.00001267,-
 0.00006560,-0.00002149,-0.00122589,0.00091356,-0.07749020,0.00540201,-
 0.01814042,0.00007523,-0.01022303,0.03051452,0.00172397,0.00003629,-0.
 00023579,-0.00027298,0.00042286,0.00023109,0.00029488,-0.00003687,0.00
 007289,-0.00002470,0.00012753,0.00076866,-0.00002860,0.00005549,0.0001
 4193,0.00001025,0.00008616,-0.00027273,-0.00000050,0.00009931,0.000051
 94,0.00002111,0.00001287,-0.00011267,0.00004039,-0.00106463,-0.0007960
 5,-0.00045007,-0.00006519,-0.00015989,-0.00000472,-0.00009275,0.000099
 38,-0.00004467,-0.00017794,-0.00005685,-0.00004414,-0.00047644,0.00324
 590,0.57416477,-0.00002520,0.00001668,0.00002669,0.00008293,-0.0002392
 8,0.00057971,-0.00016625,-0.00095021,-0.00021856,-0.00003520,0.0002291
 8,-0.00007512,0.00000255,-0.00009800,0.00003155,0.00006890,-0.00000124
 ,-0.00005224,-0.00000087,-0.00001240,-0.00000190,-0.00000335,0.0000000
 9,0.00000943,-0.00001396,0.00000049,0.00001337,-0.00345442,0.00368919,
 -0.01111543,0.00010194,-0.00048522,-0.00032626,0.00008116,0.00242734,0
 .00023318,0.00005249,-0.00010523,-0.00002278,0.00001439,-0.00002681,-0
 .00003997,0.00000160,-0.00001469,0.00001534,-0.00000117,-0.00006470,0.
 00004183,-0.00000709,-0.00002282,-0.00000408,-0.00000921,0.00003671,-0
 .00001460,-0.00001492,-0.00000946,0.00000151,-0.00000338,0.00001648,-0
 .00000764,0.00025240,0.00011909,-0.00006782,0.00000789,0.00002285,0.00
 000109,0.00001406,-0.00001024,0.00000547,0.00002698,0.00000900,0.00000
 779,-0.05916435,0.01666784,-0.05406677,0.05996404,-0.00001822,-0.00008
 730,-0.00008693,-0.00035101,0.00151963,-0.00141730,0.00124969,0.000248
 01,0.00363120,-0.00028832,0.00023299,-0.00040589,-0.00003606,0.0004549
 2,0.00004234,0.00001458,0.00000772,-0.00000481,-0.00003370,0.00001780,
 0.00002461,0.00002683,-0.00002201,-0.00002211,-0.00001421,-0.00000942,
 -0.00001730,0.00674157,-0.01084093,0.03045182,-0.00015718,0.00136501,-
 0.00035479,0.00211416,-0.00601555,-0.00051825,-0.00016555,-0.00017255,
 -0.00039637,0.00002623,-0.00003833,0.00001844,-0.00004192,-0.00002841,
 0.00000654,-0.00010369,-0.00014965,0.00001169,0.00000457,-0.00002154,0
 .00000068,-0.00001335,0.00002765,-0.00000942,-0.00000984,-0.00000020,0
 .00000093,-0.00000830,0.00001391,-0.00000223,0.00005887,-0.00000022,-0
 .00022680,0.00000270,0.00001674,-0.00000238,0.00000684,-0.00000821,0.0
 0000372,0.00000906,0.00000465,0.00000198,0.01588579,-0.06533537,0.0686
 5661,-0.02090763,0.07333488,-0.00006719,0.00005382,-0.00000460,0.00080
 839,-0.00087340,0.00070039,-0.00150459,-0.00071182,-0.00123682,0.00010
 968,0.00038351,-0.00005690,0.00003518,0.00000024,0.00010122,0.00003724
 ,-0.00000292,-0.00006360,0.00001855,-0.00001564,0.00000499,-0.00000892
 ,0.00000019,0.00001212,-0.00000770,0.00000833,0.00000748,0.00056920,0.
 00098546,0.00094048,-0.00020124,0.00044826,0.00070176,-0.00039895,-0.0
 0051465,0.00141112,0.00034558,0.00025164,0.00009835,-0.00015504,-0.000
 00195,-0.00010161,0.00004149,0.00000414,0.00001671,0.00007914,0.000270
 18,0.00001083,-0.00001118,0.00000122,-0.00000209,-0.00000941,-0.000037
 11,-0.00000463,-0.00000637,0.00000804,-0.00000780,0.00000791,-0.000005
 00,-0.00000123,-0.00040111,-0.00040695,0.00017919,0.00000683,-0.000001
 56,0.00000157,0.00000547,-0.00000331,0.00000545,0.00001245,-0.00000224
 ,0.00000509,-0.05398639,0.07164368,-0.28326105,0.06042818,-0.07822950,
 0.30496465,-0.00010226,0.00017097,-0.00001062,0.00037276,-0.00052642,0
 .00026589,-0.00147795,0.00221648,-0.00042151,0.00024195,0.00090092,0.0
 0021180,0.00002920,-0.00000822,0.00003066,0.00007944,0.00001564,-0.000
 05433,-0.00002825,-0.00000011,0.00000902,-0.00001454,0.00000440,0.0000
 1181,-0.00004147,-0.00000727,0.00002351,0.00876268,0.00990312,0.005681
 26,0.00087727,-0.00069461,0.00003838,0.00035114,-0.00074109,0.00008707
 ,0.00028808,-0.00055470,-0.00023932,0.00031650,0.00012022,0.00001509,-
 0.00004915,0.00005830,-0.00000821,0.00015728,0.00061247,0.00000683,0.0
 0001280,0.00005984,0.00000868,0.00004598,-0.00013860,0.00001473,0.0000
 5462,0.00002036,0.00000516,0.00004136,-0.00006710,0.00000628,-0.000574
 65,-0.00051875,-0.00009227,-0.00003470,-0.00008920,-0.00000341,-0.0000
 5132,0.00004972,-0.00001886,-0.00008237,-0.00002965,-0.00001784,-0.178
 59407,-0.11756958,-0.06958671,-0.00470578,-0.00301081,-0.00104205,0.19
 066970,0.00039744,-0.00039995,-0.00000427,-0.00085662,0.00022807,-0.00
 081307,0.00581463,-0.00197732,0.00251764,-0.00095897,-0.00224467,-0.00
 065777,-0.00009148,0.00014459,-0.00015530,-0.00022887,-0.00013259,0.00
 028064,0.00001739,0.00004188,-0.00002492,0.00002266,0.00002214,-0.0000
 0688,0.00013250,-0.00002214,-0.00009072,-0.02261668,-0.02089445,-0.012
 36708,0.00006156,0.00140493,-0.00030571,-0.00031491,0.00108295,0.00057
 604,-0.00080957,-0.00027038,-0.00016034,0.00044047,0.00013376,0.000291
 49,-0.00009258,0.00007086,-0.00005448,-0.00007142,-0.00023553,-0.00004
 481,0.00005351,0.00009009,0.00000139,0.00008294,-0.00003670,0.00003513
 ,0.00009186,0.00001209,0.00003261,-0.00000358,-0.00006486,0.00003442,0
 .00013310,0.00019880,0.00000664,-0.00005343,-0.00009719,-0.00000559,-0
 .00008190,0.00007159,-0.00003920,-0.00013643,-0.00002688,-0.00004469,-
 0.11559072,-0.14592575,-0.06050784,0.00735329,0.00577039,0.00270018,0.
 12512190,0.16174077,0.00001166,0.00002453,-0.00000912,0.00026903,-0.00
 096216,0.00082323,-0.00008523,0.00003296,-0.00090807,-0.00006442,0.000
 17993,0.00003976,0.00002870,0.00002041,0.00001655,-0.00002925,0.000011
 98,0.00001291,0.00000051,0.00000754,0.00000646,-0.00001007,0.00000728,
 0.00001074,0.00000274,0.00000420,0.00001152,0.00095015,0.00170206,-0.0
 0074997,-0.00016907,-0.00014694,-0.00007162,0.00042847,-0.00021657,0.0
 0038294,-0.00022612,0.00034323,0.00029768,-0.00011296,-0.00007803,-0.0
 0002314,0.00000920,0.00000966,-0.00000662,-0.00000714,-0.00010379,-0.0
 0001393,0.00000314,-0.00000442,-0.00000686,0.00000046,0.00001641,0.000
 00624,-0.00000287,0.,0.00000092,-0.00000425,0.00000664,0.00000013,0.00
 014987,0.00008445,0.00014078,0.00000198,0.00000731,0.00000168,0.000004
 98,-0.00000315,0.00000074,0.00000773,0.00000338,0.00000040,-0.06902652
 ,-0.06128560,-0.08233393,-0.02035067,-0.01889293,-0.00932277,0.0760678
 7,0.06693246,0.08454795,-0.00004087,0.00004857,0.00001203,0.00026504,0
 .00024527,0.00031093,-0.00092982,-0.00082436,-0.00030597,0.00000683,0.
 00019025,0.00010534,-0.00001080,-0.00007603,0.00003765,-0.00000535,0.0
 0003338,-0.00006894,0.00007057,-0.00002325,-0.00001830,0.00000412,-0.0
 0000479,-0.00000073,0.00000943,0.00003078,0.00002844,-0.00904441,0.001
 63008,0.00574672,0.00055232,0.00224182,-0.00040776,0.00013458,-0.00014
 692,-0.00027261,0.00044913,-0.00078325,-0.00038962,0.00028970,0.000188
 03,0.00000953,0.00001276,-0.00005122,0.00004092,-0.00022991,-0.0003976
 3,-0.00001617,-0.00001979,-0.00003354,0.00000921,-0.00002854,0.0000623
 1,-0.00004641,-0.00002523,-0.00001903,-0.00002862,-0.00001210,0.000035
 13,-0.00002604,-0.00116542,-0.00003828,-0.00051692,0.00002211,0.000053
 04,0.00000116,0.00003533,-0.00003140,0.00002002,0.00003406,0.00001390,
 0.00002533,-0.23097007,0.01746265,0.12607347,0.00693380,-0.00098110,-0
 .00470515,-0.01654424,0.00218391,0.01215209,0.25020676,0.00000896,-0.0
 0007603,-0.00000438,-0.00058745,-0.00000066,-0.00005571,0.00256964,0.0
 0108052,-0.00100711,-0.00020269,0.00018523,0.00013811,0.00004766,0.000
 08081,-0.00002082,0.00010316,0.00006864,0.00002360,-0.00015984,0.00004
 321,0.00002161,-0.00000583,-0.00000185,-0.00000127,-0.00009511,-0.0000
 3971,0.00002132,0.02705799,-0.00357030,-0.01878593,0.00196448,-0.00610
 622,-0.00009504,-0.00047814,0.00143070,0.00031933,-0.00053581,0.000575
 64,0.00064652,-0.00064100,-0.00010522,-0.00000964,0.00015186,-0.000096
 37,0.00003689,-0.00023831,-0.00054536,-0.00005806,-0.00002790,-0.00007
 206,-0.00002210,-0.00007336,0.00011012,-0.00004527,-0.00008874,-0.0000
 1162,-0.00002316,-0.00005385,0.00009255,-0.00000510,0.00018672,0.00028
 454,0.00010943,0.00006169,0.00012825,0.00000703,0.00008616,-0.00007291
 ,0.00003269,0.00012021,0.00003512,0.00003677,0.01477637,-0.04701633,-0
 .01010093,-0.00764029,-0.00028464,0.00404717,-0.01529827,0.00131549,0.
 01229914,-0.02100833,0.05256844,0.00003955,-0.00005612,-0.00001818,-0.
 00053401,-0.00018110,0.00009905,0.00162174,-0.00005076,-0.00041727,-0.
 00011216,-0.00011290,-0.00005912,-0.00000054,0.00004452,0.00000196,-0.
 00002279,0.00000867,0.00000745,-0.00000468,0.00000397,0.00001045,0.000
 00405,-0.00000582,-0.00000402,0.00000130,0.00000348,-0.00000603,-0.001
 63875,-0.00052462,-0.00004121,-0.00021443,0.00038377,0.00137254,-0.000
 40164,-0.00052393,0.00058737,-0.00041296,0.00069510,0.00039335,-0.0003
 1443,-0.00015778,-0.00008129,0.00005029,-0.00008350,0.00001161,-0.0002
 6127,-0.00109791,0.00001067,-0.00002608,-0.00011070,-0.00000710,-0.000
 07161,0.00027204,-0.00002467,-0.00007725,-0.00004490,-0.00001022,-0.00
 005797,0.00011112,-0.00002080,0.00061615,0.00089015,0.00005102,0.00005
 520,0.00014852,0.00000262,0.00007929,-0.00008032,0.00003286,0.00013553
 ,0.00005317,0.00003155,0.12533727,-0.01168952,-0.13261144,0.02496869,-
 0.00226356,-0.01509829,-0.01098890,0.00187403,0.00714538,-0.13776959,0
 .01249489,0.13864177\\0.00000175,-0.00000383,-0.00000164,0.00000698,-0
 .00000361,0.00002364,-0.00000240,0.00002255,-0.00004232,-0.00000050,-0
 .00001509,0.00000702,-0.00000267,0.00000708,0.00000089,-0.00000040,-0.
 00000009,0.00000446,0.00000179,0.00000016,-0.00000134,0.00000029,-0.00
 000010,0.00000186,0.00000105,-0.00000059,0.00000230,-0.00000691,-0.000
 00092,0.00000791,0.00000556,0.00000092,0.00000021,-0.00000060,0.000004
 01,-0.00000016,-0.00001636,-0.00000920,0.00000594,0.00001546,0.0000031
 9,0.00000805,-0.00000611,0.00000066,-0.00000047,0.00000174,-0.00000832
 ,-0.00000062,0.00000413,-0.00000263,0.00000157,-0.00000417,-0.00000410
 ,-0.00000591,-0.00000475,0.00000877,-0.00000227,0.00000272,-0.00000057
 ,0.00000074,-0.00000350,0.00000524,-0.00000143,0.00000120,0.00000296,-
 0.00000067,0.00000076,0.00000188,-0.00000242,0.00000135,-0.00000234,-0
 .00000175,0.00000011,-0.00000725,-0.00000580,0.00000187,0.00000117,0.0
 0000765,-0.00000407,-0.00000177,-0.00000156,0.00000567,0.00000185,-0.0
 0000386\\\@


 HOW IS IT THAT THE SKY FEEDS THE STARS?

                           -- LUCRETIUS
 Job cpu time:       0 days  8 hours 45 minutes 54.6 seconds.
 Elapsed time:       0 days  0 hours 21 minutes 56.5 seconds.
 File lengths (MBytes):  RWF=   1076 Int=      0 D2E=      0 Chk=     40 Scr=      1
 Normal termination of Gaussian 16 at Thu Aug 29 04:51:53 2024.
