 Entering Gaussian System, Link 0=g16
 Input=input.com
 Output=input.log
 Initial command:
 /share/apps/g16.b01_avx2/g16/l1.exe "/scratch/Gau-8689.inp" -scrdir="/scratch/"
 Entering Link 1 = /share/apps/g16.b01_avx2/g16/l1.exe PID=      8691.
  
 Copyright (c) 1988-2017, Gaussian, Inc.  All Rights Reserved.
  
 This is part of the Gaussian(R) 16 program.  It is based on
 the Gaussian(R) 09 system (copyright 2009, Gaussian, Inc.),
 the Gaussian(R) 03 system (copyright 2003, Gaussian, Inc.),
 the Gaussian(R) 98 system (copyright 1998, Gaussian, Inc.),
 the Gaussian(R) 94 system (copyright 1995, Gaussian, Inc.),
 the Gaussian 92(TM) system (copyright 1992, Gaussian, Inc.),
 the Gaussian 90(TM) system (copyright 1990, Gaussian, Inc.),
 the Gaussian 88(TM) system (copyright 1988, Gaussian, Inc.),
 the Gaussian 86(TM) system (copyright 1986, Carnegie Mellon
 University), and the Gaussian 82(TM) system (copyright 1983,
 Carnegie Mellon University). Gaussian is a federally registered
 trademark of Gaussian, Inc.
  
 This software contains proprietary and confidential information,
 including trade secrets, belonging to Gaussian, Inc.
  
 This software is provided under written license and may be
 used, copied, transmitted, or stored only in accord with that
 written license.
  
 The following legend is applicable only to US Government
 contracts under FAR:
  
                    RESTRICTED RIGHTS LEGEND
  
 Use, reproduction and disclosure by the US Government is
 subject to restrictions as set forth in subparagraphs (a)
 and (c) of the Commercial Computer Software - Restricted
 Rights clause in FAR 52.227-19.
  
 Gaussian, Inc.
 340 Quinnipiac St., Bldg. 40, Wallingford CT 06492
  
  
 ---------------------------------------------------------------
 Warning -- This program may not be used in any manner that
 competes with the business of Gaussian, Inc. or will provide
 assistance to any competitor of Gaussian, Inc.  The licensee
 of this program is prohibited from giving any competitor of
 Gaussian, Inc. access to this program.  By using this program,
 the user acknowledges that Gaussian, Inc. is engaged in the
 business of creating and licensing software in the field of
 computational chemistry and represents and warrants to the
 licensee that it is not a competitor of Gaussian, Inc. and that
 it will not use this program in any manner prohibited above.
 ---------------------------------------------------------------
  

 Cite this work as:
 Gaussian 16, Revision B.01,
 M. J. Frisch, G. W. Trucks, H. B. Schlegel, G. E. Scuseria, 
 M. A. Robb, J. R. Cheeseman, G. Scalmani, V. Barone, 
 G. A. Petersson, H. Nakatsuji, X. Li, M. Caricato, A. V. Marenich, 
 J. Bloino, B. G. Janesko, R. Gomperts, B. Mennucci, H. P. Hratchian, 
 J. V. Ortiz, A. F. Izmaylov, J. L. Sonnenberg, D. Williams-Young, 
 F. Ding, F. Lipparini, F. Egidi, J. Goings, B. Peng, A. Petrone, 
 T. Henderson, D. Ranasinghe, V. G. Zakrzewski, J. Gao, N. Rega, 
 G. Zheng, W. Liang, M. Hada, M. Ehara, K. Toyota, R. Fukuda, 
 J. Hasegawa, M. Ishida, T. Nakajima, Y. Honda, O. Kitao, H. Nakai, 
 T. Vreven, K. Throssell, J. A. Montgomery, Jr., J. E. Peralta, 
 F. Ogliaro, M. J. Bearpark, J. J. Heyd, E. N. Brothers, K. N. Kudin, 
 V. N. Staroverov, T. A. Keith, R. Kobayashi, J. Normand, 
 K. Raghavachari, A. P. Rendell, J. C. Burant, S. S. Iyengar, 
 J. Tomasi, M. Cossi, J. M. Millam, M. Klene, C. Adamo, R. Cammi, 
 J. W. Ochterski, R. L. Martin, K. Morokuma, O. Farkas, 
 J. B. Foresman, and D. J. Fox, Gaussian, Inc., Wallingford CT, 2016.
 
 ******************************************
 Gaussian 16:  ES64L-G16RevB.01 20-Dec-2017
                 3-May-2024 
 ******************************************
 %nproc=16
 Will use up to   16 processors via shared memory.
 %mem=60GB
 ----------------------------------------------------------------------
 #P PBE1PBE/def2TZVP opt freq EmpiricalDispersion=GD3 Int=(grid=99590) 
 scrf=(iefpcm, solvent=water)
 ----------------------------------------------------------------------
 1/18=20,19=15,26=6,38=1/1,3;
 2/9=110,12=2,17=6,18=5,40=1/2;
 3/5=44,7=101,11=2,25=1,30=1,70=2201,71=1,72=1,74=-13,75=99590,124=31/1,2,3;
 4//1;
 5/5=2,38=5,53=1/2;
 6/7=2,8=2,9=2,10=2,28=1/1;
 7//1,2,3,16;
 1/18=20,19=15,26=6/3(2);
 2/9=110/2;
 99//99;
 2/9=110/2;
 3/5=44,7=101,11=2,25=1,30=1,70=2205,71=1,72=1,74=-13,75=99590,124=31/1,2,3;
 4/5=5,16=3,69=1/1;
 5/5=2,38=5,53=1/2;
 7//1,2,3,16;
 1/18=20,19=15,26=6/3(-5);
 2/9=110/2;
 6/7=2,8=2,9=2,10=2,19=2,28=1/1;
 99/9=1/99;
 Leave Link    1 at Fri May  3 18:41:41 2024, MaxMem=  8053063680 cpu:               0.4 elap:               0.0
 (Enter /share/apps/g16.b01_avx2/g16/l101.exe)
 ---------------
 pfp-OH_product2
 ---------------
 Symbolic Z-matrix:
 Charge =  0 Multiplicity = 1
 C                     0.36616  -0.24962   0.31228 
 C                     0.97304  -0.89367  -0.77437 
 C                    -1.00927   0.0179    0.28923 
 C                     0.20448  -1.2702   -1.88408 
 C                    -1.77783  -0.35864  -0.82049 
 C                    -1.17095  -1.00269  -1.90714 
 O                     1.15041   0.1346    1.44464 
 H                     1.1633   -0.58224   2.08305 
 F                     2.29803  -1.15137  -0.75216 
 F                    -1.59389   0.63832   1.33603 
 F                    -3.10282  -0.10094  -0.8427 
 F                     0.7891   -1.89063  -2.93088 
 F                    -1.91132  -1.36542  -2.97615 
 
 ITRead=  0  0  0  0  0  0  0  0  0  0  0  0  0
 MicOpt= -1 -1 -1 -1 -1 -1 -1 -1 -1 -1 -1 -1 -1
 NAtoms=     13 NQM=       13 NQMF=       0 NMMI=      0 NMMIF=      0
                NMic=       0 NMicF=      0.
                    Isotopes and Nuclear Properties:
 (Nuclear quadrupole moments (NQMom) in fm**2, nuclear magnetic moments (NMagM)
  in nuclear magnetons)

  Atom         1           2           3           4           5           6           7           8           9          10
 IAtWgt=          12          12          12          12          12          12          16           1          19          19
 AtmWgt=  12.0000000  12.0000000  12.0000000  12.0000000  12.0000000  12.0000000  15.9949146   1.0078250  18.9984032  18.9984032
 NucSpn=           0           0           0           0           0           0           0           1           1           1
 AtZEff=  -0.0000000  -0.0000000  -0.0000000  -0.0000000  -0.0000000  -0.0000000  -0.0000000  -0.0000000  -0.0000000  -0.0000000
 NQMom=    0.0000000   0.0000000   0.0000000   0.0000000   0.0000000   0.0000000   0.0000000   0.0000000   0.0000000   0.0000000
 NMagM=    0.0000000   0.0000000   0.0000000   0.0000000   0.0000000   0.0000000   0.0000000   2.7928460   2.6288670   2.6288670
 AtZNuc=   6.0000000   6.0000000   6.0000000   6.0000000   6.0000000   6.0000000   8.0000000   1.0000000   9.0000000   9.0000000

  Atom        11          12          13
 IAtWgt=          19          19          19
 AtmWgt=  18.9984032  18.9984032  18.9984032
 NucSpn=           1           1           1
 AtZEff=  -0.0000000  -0.0000000  -0.0000000
 NQMom=    0.0000000   0.0000000   0.0000000
 NMagM=    2.6288670   2.6288670   2.6288670
 AtZNuc=   9.0000000   9.0000000   9.0000000
 Leave Link  101 at Fri May  3 18:41:42 2024, MaxMem=  8053063680 cpu:               3.1 elap:               0.2
 (Enter /share/apps/g16.b01_avx2/g16/l103.exe)

 GradGradGradGradGradGradGradGradGradGradGradGradGradGradGradGradGradGrad
 Berny optimization.
 Initialization pass.
                           ----------------------------
                           !    Initial Parameters    !
                           ! (Angstroms and Degrees)  !
 --------------------------                            --------------------------
 ! Name  Definition              Value          Derivative Info.                !
 --------------------------------------------------------------------------------
 ! R1    R(1,2)                  1.4014         estimate D2E/DX2                !
 ! R2    R(1,3)                  1.4014         estimate D2E/DX2                !
 ! R3    R(1,7)                  1.43           estimate D2E/DX2                !
 ! R4    R(2,4)                  1.4014         estimate D2E/DX2                !
 ! R5    R(2,9)                  1.35           estimate D2E/DX2                !
 ! R6    R(3,5)                  1.4014         estimate D2E/DX2                !
 ! R7    R(3,10)                 1.35           estimate D2E/DX2                !
 ! R8    R(4,6)                  1.4014         estimate D2E/DX2                !
 ! R9    R(4,12)                 1.35           estimate D2E/DX2                !
 ! R10   R(5,6)                  1.4014         estimate D2E/DX2                !
 ! R11   R(5,11)                 1.35           estimate D2E/DX2                !
 ! R12   R(6,13)                 1.35           estimate D2E/DX2                !
 ! R13   R(7,8)                  0.96           estimate D2E/DX2                !
 ! A1    A(2,1,3)              120.0            estimate D2E/DX2                !
 ! A2    A(2,1,7)              120.0            estimate D2E/DX2                !
 ! A3    A(3,1,7)              120.0            estimate D2E/DX2                !
 ! A4    A(1,2,4)              120.0            estimate D2E/DX2                !
 ! A5    A(1,2,9)              120.0            estimate D2E/DX2                !
 ! A6    A(4,2,9)              120.0            estimate D2E/DX2                !
 ! A7    A(1,3,5)              120.0            estimate D2E/DX2                !
 ! A8    A(1,3,10)             120.0            estimate D2E/DX2                !
 ! A9    A(5,3,10)             120.0            estimate D2E/DX2                !
 ! A10   A(2,4,6)              120.0            estimate D2E/DX2                !
 ! A11   A(2,4,12)             120.0            estimate D2E/DX2                !
 ! A12   A(6,4,12)             120.0            estimate D2E/DX2                !
 ! A13   A(3,5,6)              120.0            estimate D2E/DX2                !
 ! A14   A(3,5,11)             120.0            estimate D2E/DX2                !
 ! A15   A(6,5,11)             120.0            estimate D2E/DX2                !
 ! A16   A(4,6,5)              120.0            estimate D2E/DX2                !
 ! A17   A(4,6,13)             120.0            estimate D2E/DX2                !
 ! A18   A(5,6,13)             120.0            estimate D2E/DX2                !
 ! A19   A(1,7,8)              109.4712         estimate D2E/DX2                !
 ! D1    D(3,1,2,4)              0.0            estimate D2E/DX2                !
 ! D2    D(3,1,2,9)           -179.9998         estimate D2E/DX2                !
 ! D3    D(7,1,2,4)           -180.0            estimate D2E/DX2                !
 ! D4    D(7,1,2,9)              0.0002         estimate D2E/DX2                !
 ! D5    D(2,1,3,5)              0.0001         estimate D2E/DX2                !
 ! D6    D(2,1,3,10)           180.0            estimate D2E/DX2                !
 ! D7    D(7,1,3,5)            180.0            estimate D2E/DX2                !
 ! D8    D(7,1,3,10)            -0.0001         estimate D2E/DX2                !
 ! D9    D(2,1,7,8)            -90.0            estimate D2E/DX2                !
 ! D10   D(3,1,7,8)             90.0            estimate D2E/DX2                !
 ! D11   D(1,2,4,6)              0.0            estimate D2E/DX2                !
 ! D12   D(1,2,4,12)          -179.9998         estimate D2E/DX2                !
 ! D13   D(9,2,4,6)            179.9997         estimate D2E/DX2                !
 ! D14   D(9,2,4,12)            -0.0001         estimate D2E/DX2                !
 ! D15   D(1,3,5,6)              0.0            estimate D2E/DX2                !
 ! D16   D(1,3,5,11)           179.9998         estimate D2E/DX2                !
 ! D17   D(10,3,5,6)          -179.9999         estimate D2E/DX2                !
 ! D18   D(10,3,5,11)           -0.0001         estimate D2E/DX2                !
 ! D19   D(2,4,6,5)              0.0001         estimate D2E/DX2                !
 ! D20   D(2,4,6,13)          -179.9999         estimate D2E/DX2                !
 ! D21   D(12,4,6,5)           179.9999         estimate D2E/DX2                !
 ! D22   D(12,4,6,13)           -0.0001         estimate D2E/DX2                !
 ! D23   D(3,5,6,4)             -0.0001         estimate D2E/DX2                !
 ! D24   D(3,5,6,13)           179.9999         estimate D2E/DX2                !
 ! D25   D(11,5,6,4)          -179.9998         estimate D2E/DX2                !
 ! D26   D(11,5,6,13)            0.0001         estimate D2E/DX2                !
 --------------------------------------------------------------------------------
 Trust Radius=3.00D-01 FncErr=5.00D-06 GrdErr=5.00D-06 EigMax=2.50D+02 EigMin=1.00D-04
 Number of steps in this run=     68 maximum allowed number of steps=    100.
 GradGradGradGradGradGradGradGradGradGradGradGradGradGradGradGradGradGrad

 Leave Link  103 at Fri May  3 18:41:42 2024, MaxMem=  8053063680 cpu:               0.0 elap:               0.0
 (Enter /share/apps/g16.b01_avx2/g16/l202.exe)
                          Input orientation:                          
 ---------------------------------------------------------------------
 Center     Atomic      Atomic             Coordinates (Angstroms)
 Number     Number       Type             X           Y           Z
 ---------------------------------------------------------------------
      1          6           0        0.366162   -0.249618    0.312283
      2          6           0        0.973042   -0.893667   -0.774372
      3          6           0       -1.009274    0.017896    0.289226
      4          6           0        0.204484   -1.270203   -1.884085
      5          6           0       -1.777832   -0.358639   -0.820487
      6          6           0       -1.170953   -1.002690   -1.907141
      7          8           0        1.150405    0.134602    1.444643
      8          1           0        1.163302   -0.582241    2.083055
      9          9           0        2.298030   -1.151373   -0.752159
     10          9           0       -1.593895    0.638323    1.336026
     11          9           0       -3.102822   -0.100941   -0.842696
     12          9           0        0.789104   -1.890633   -2.930883
     13          9           0       -1.911322   -1.365417   -2.976151
 ---------------------------------------------------------------------
                    Distance matrix (angstroms):
                    1          2          3          4          5
     1  C    0.000000
     2  C    1.401400   0.000000
     3  C    1.401400   2.427296   0.000000
     4  C    2.427296   1.401400   2.802800   0.000000
     5  C    2.427296   2.802800   1.401400   2.427296   0.000000
     6  C    2.802800   2.427296   2.427296   1.401400   1.401400
     7  O    1.430000   2.452106   2.452106   3.734792   3.734792
     8  H    1.970203   2.880638   2.880638   4.138939   4.138939
     9  F    2.382921   1.350000   3.659226   2.382921   4.152800
    10  F    2.382921   3.659226   1.350000   4.152800   2.382921
    11  F    3.659226   4.152800   2.382921   3.659226   1.350000
    12  F    3.659226   2.382921   4.152800   1.350000   3.659226
    13  F    4.152800   3.659226   3.659226   2.382921   2.382921
                    6          7          8          9         10
     6  C    0.000000
     7  O    4.232800   0.000000
     8  H    4.641895   0.960000   0.000000
     9  F    3.659226   2.792260   3.106438   0.000000
    10  F    3.659226   2.792260   3.106439   4.765565   0.000000
    11  F    2.382921   4.835012   5.195333   5.502800   2.751400
    12  F    2.382921   4.835012   5.195333   2.751400   5.502800
    13  F    1.350000   5.582800   5.971787   4.765565   4.765565
                   11         12         13
    11  F    0.000000
    12  F    4.765565   0.000000
    13  F    2.751400   2.751400   0.000000
 Stoichiometry    C6HF5O
 Framework group  C1[X(C6HF5O)]
 Deg. of freedom    33
 Full point group                 C1      NOp   1
 Largest Abelian subgroup         C1      NOp   1
 Largest concise Abelian subgroup C1      NOp   1
                         Standard orientation:                         
 ---------------------------------------------------------------------
 Center     Atomic      Atomic             Coordinates (Angstroms)
 Number     Number       Type             X           Y           Z
 ---------------------------------------------------------------------
      1          6           0        1.389634    0.000000   -0.026184
      2          6           0        0.688981   -1.213648   -0.018054
      3          6           0        0.688981    1.213648   -0.018054
      4          6           0       -0.712324   -1.213648   -0.001793
      5          6           0       -0.712324    1.213648   -0.001793
      6          6           0       -1.412977   -0.000000    0.006338
      7          8           0        2.819538    0.000000   -0.042777
      8          1           0        3.150019    0.000000    0.858545
      9          9           0        1.363936   -2.382782   -0.025883
     10          9           0        1.363936    2.382782   -0.025885
     11          9           0       -1.387279    2.382782    0.006044
     12          9           0       -1.387279   -2.382782    0.006042
     13          9           0       -2.762886   -0.000000    0.022005
 ---------------------------------------------------------------------
 Rotational constants (GHZ):           1.0161958           1.0047883           0.5060436
 Leave Link  202 at Fri May  3 18:41:42 2024, MaxMem=  8053063680 cpu:               0.0 elap:               0.0
 (Enter /share/apps/g16.b01_avx2/g16/l301.exe)
 Standard basis: def2TZVP (5D, 7F)
 Ernie: Thresh=  0.10000D-02 Tol=  0.10000D-05 Strict=F.
 There are   438 symmetry adapted cartesian basis functions of A   symmetry.
 There are   378 symmetry adapted basis functions of A   symmetry.
   378 basis functions,   620 primitive gaussians,   438 cartesian basis functions
    45 alpha electrons       45 beta electrons
       nuclear repulsion energy       725.2653908446 Hartrees.
 IExCor= 1009 DFT=T Ex+Corr=PBE1PBE ExCW=0 ScaHFX=  0.250000
 ScaDFX=  0.750000  0.750000  1.000000  1.000000 ScalE2=  1.000000  1.000000
 IRadAn=  99590 IRanWt=     -1 IRanGd=            0 ICorTp=0 IEmpDi=131
 NAtoms=   13 NActive=   13 NUniq=   13 SFac= 1.00D+00 NAtFMM=   60 NAOKFM=F Big=F
 Integral buffers will be    131072 words long.
 Raffenetti 2 integral format.
 Two-electron integral symmetry is turned on.
 R6Disp:  Grimme-D3 Dispersion energy=       -0.0056569643 Hartrees.
 Nuclear repulsion after empirical dispersion term =      725.2597338803 Hartrees.
 ------------------------------------------------------------------------------
 Polarizable Continuum Model (PCM)
 =================================
 Model                : PCM.
 Atomic radii         : UFF (Universal Force Field).
 Polarization charges : Total charges.
 Charge compensation  : None.
 Solution method      : On-the-fly selection.
 Cavity type          : Scaled VdW (van der Waals Surface) (Alpha=1.100).
 Cavity algorithm     : GePol (No added spheres)
                        Default sphere list used, NSphG=   13.
                        Lebedev-Laikov grids with approx.  5.0 points / Ang**2.
                        Smoothing algorithm: York/Karplus (Gamma=1.0000).
                        Polarization charges: spherical gaussians, with
                                              point-specific exponents (IZeta= 3).
                        Self-potential: point-specific (ISelfS= 7).
                        Self-field    : sphere-specific E.n sum rule (ISelfD= 2).
 1st derivatives      : Analytical E(r).r(x)/FMM algorithm (CHGder, D1EAlg=3).
                        Cavity 1st derivative terms included.
 Solvent              : Water, Eps=  78.355300 Eps(inf)=   1.777849
 ------------------------------------------------------------------------------
 Spheres list:
 ISph  on   Nord     Re0    Alpha      Xe            Ye            Ze
    1   C      1    1.9255  1.100      1.389634      0.000000     -0.026184
    2   C      2    1.9255  1.100      0.688981     -1.213648     -0.018054
    3   C      3    1.9255  1.100      0.688981      1.213648     -0.018054
    4   C      4    1.9255  1.100     -0.712324     -1.213648     -0.001793
    5   C      5    1.9255  1.100     -0.712324      1.213648     -0.001793
    6   C      6    1.9255  1.100     -1.412977     -0.000000      0.006338
    7   O      7    1.7500  1.100      2.819538      0.000000     -0.042777
    8   H      8    1.4430  1.100      3.150019      0.000000      0.858545
    9   F      9    1.6820  1.100      1.363936     -2.382782     -0.025883
   10   F     10    1.6820  1.100      1.363936      2.382782     -0.025885
   11   F     11    1.6820  1.100     -1.387279      2.382782      0.006044
   12   F     12    1.6820  1.100     -1.387279     -2.382782      0.006042
   13   F     13    1.6820  1.100     -2.762886     -0.000000      0.022005
 ------------------------------------------------------------------------------
 GePol: Number of generator spheres                  =      13
 GePol: Total number of spheres                      =      13
 GePol: Number of exposed spheres                    =      13 (100.00%)
 GePol: Number of points                             =    1462
 GePol: Average weight of points                     =       0.13
 GePol: Minimum weight of points                     =   0.50D-07
 GePol: Maximum weight of points                     =    0.20212
 GePol: Number of points with low weight             =      42
 GePol: Fraction of low-weight points (<1% of avg)   =       2.87%
 GePol: Cavity surface area                          =    188.894 Ang**2
 GePol: Cavity volume                                =    183.725 Ang**3
 Leave Link  301 at Fri May  3 18:41:42 2024, MaxMem=  8053063680 cpu:               0.3 elap:               0.0
 (Enter /share/apps/g16.b01_avx2/g16/l302.exe)
 NPDir=0 NMtPBC=     1 NCelOv=     1 NCel=       1 NClECP=     1 NCelD=      1
         NCelK=      1 NCelE2=     1 NClLst=     1 CellRange=     0.0.
 One-electron integrals computed using PRISM.
 One-electron integral symmetry used in STVInt
   1 Symmetry operations used in ECPInt.
 ECPInt:  NShTT=    9316 NPrTT=   30648 LenC2=    8637 LenP2D=   21364.
 LDataN:  DoStor=T MaxTD1= 6 Len=  172
 NBasis=   378 RedAO= T EigKep=  1.92D-05  NBF=   378
 NBsUse=   378 1.00D-06 EigRej= -1.00D+00 NBFU=   378
 Precomputing XC quadrature grid using
 IXCGrd= 4 IRadAn=       99590 IRanWt=          -1 IRanGd=           0 AccXCQ= 0.00D+00.
 Generated NRdTot=       0 NPtTot=           0 NUsed=           0 NTot=          32
 NSgBfM=   431   431   431   431   431 MxSgAt=    13 MxSgA2=    13.
 Leave Link  302 at Fri May  3 18:41:42 2024, MaxMem=  8053063680 cpu:               2.0 elap:               0.1
 (Enter /share/apps/g16.b01_avx2/g16/l303.exe)
 DipDrv:  MaxL=1.
 Leave Link  303 at Fri May  3 18:41:42 2024, MaxMem=  8053063680 cpu:               0.3 elap:               0.0
 (Enter /share/apps/g16.b01_avx2/g16/l401.exe)
 ExpMin= 9.52D-02 ExpMax= 3.55D+04 ExpMxC= 1.21D+03 IAcc=4 IRadAn=    199590 AccDes= 0.00D+00
 Harris functional with IExCor= 1009 and IRadAn=  199590 diagonalized for initial guess.
 HarFok:  IExCor= 1009 AccDes= 0.00D+00 IRadAn=    199590 IDoV= 1 UseB2=F ITyADJ=14
 ICtDFT=  3500011 ScaDFX=  1.000000  1.000000  1.000000  1.000000
 FoFCou: FMM=F IPFlag=           0 FMFlag=      100000 FMFlg1=           0
         NFxFlg=           0 DoJE=T BraDBF=F KetDBF=T FulRan=T
         wScrn=  0.000000 ICntrl=       500 IOpCl=  0 I1Cent=   200000004 NGrid=           0
         NMat0=    1 NMatS0=      1 NMatT0=    0 NMatD0=    1 NMtDS0=    0 NMtDT0=    0
 Petite list used in FoFCou.
 Harris En= -803.153296851445    
 JPrj=0 DoOrth=F DoCkMO=F.
 Leave Link  401 at Fri May  3 18:41:43 2024, MaxMem=  8053063680 cpu:              17.8 elap:               1.1
 (Enter /share/apps/g16.b01_avx2/g16/l502.exe)
 Integral symmetry usage will be decided dynamically.
 Closed shell SCF:
 Using DIIS extrapolation, IDIIS=  1040.
 NGot=  8053063680 LenX=  8052669299 LenY=  8052477014
 Requested convergence on RMS density matrix=1.00D-08 within 128 cycles.
 Requested convergence on MAX density matrix=1.00D-06.
 Requested convergence on             energy=1.00D-06.
 No special actions if energy rises.
 Fock matrices will be formed incrementally for  20 cycles.

 Cycle   1  Pass 1  IDiag  1:
 FoFJK:  IHMeth= 1 ICntrl=       0 DoSepK=F KAlg= 0 I1Cent=           0 FoldK=F
 IRaf= 890000000 NMat=       1 IRICut=       1 DoRegI=T DoRafI=F ISym2E= 0 IDoP0=0 IntGTp=1.
 FoFCou: FMM=F IPFlag=           0 FMFlag=      100000 FMFlg1=           0
         NFxFlg=           0 DoJE=F BraDBF=F KetDBF=F FulRan=T
         wScrn=  0.000000 ICntrl=         0 IOpCl=  0 I1Cent=           0 NGrid=           0
         NMat0=    1 NMatS0=      1 NMatT0=    0 NMatD0=    1 NMtDS0=    0 NMtDT0=    0
 Symmetry not used in FoFCou.
 Inv3:  Mode=1 IEnd=     6412332.
 Iteration    1 A*A^-1 deviation from unit magnitude is 2.89D-15 for    201.
 Iteration    1 A*A^-1 deviation from orthogonality  is 1.58D-15 for    945     70.
 Iteration    1 A^-1*A deviation from unit magnitude is 2.89D-15 for    201.
 Iteration    1 A^-1*A deviation from orthogonality  is 2.11D-15 for   1224   1134.
 E= -803.070004259000    
 DIIS: error= 1.43D-02 at cycle   1 NSaved=   1.
 NSaved= 1 IEnMin= 1 EnMin= -803.070004259000     IErMin= 1 ErrMin= 1.43D-02
 ErrMax= 1.43D-02  0.00D+00 EMaxC= 1.00D-01 BMatC= 1.39D-01 BMatP= 1.39D-01
 IDIUse=3 WtCom= 8.57D-01 WtEn= 1.43D-01
 Coeff-Com:  0.100D+01
 Coeff-En:   0.100D+01
 Coeff:      0.100D+01
 Gap=     0.258 Goal=   None    Shift=    0.000
 GapD=    0.258 DampG=1.000 DampE=0.500 DampFc=0.5000 IDamp=-1.
 Damping current iteration by 5.00D-01
 RMSDP=1.96D-03 MaxDP=9.21D-02              OVMax= 1.16D-01

 Cycle   2  Pass 1  IDiag  1:
 RMSU=  9.82D-04    CP:  9.98D-01
 E= -803.104915176430     Delta-E=       -0.034910917430 Rises=F Damp=T
 DIIS: error= 5.28D-03 at cycle   2 NSaved=   2.
 NSaved= 2 IEnMin= 2 EnMin= -803.104915176430     IErMin= 2 ErrMin= 5.28D-03
 ErrMax= 5.28D-03  0.00D+00 EMaxC= 1.00D-01 BMatC= 1.54D-02 BMatP= 1.39D-01
 IDIUse=3 WtCom= 9.47D-01 WtEn= 5.28D-02
 Coeff-Com: -0.374D-01 0.104D+01
 Coeff-En:   0.207D-01 0.979D+00
 Coeff:     -0.344D-01 0.103D+01
 Gap=     0.350 Goal=   None    Shift=    0.000
 RMSDP=8.44D-04 MaxDP=5.40D-02 DE=-3.49D-02 OVMax= 7.97D-02

 Cycle   3  Pass 1  IDiag  1:
 RMSU=  7.51D-04    CP:  9.81D-01  6.48D-01
 E= -803.140490485337     Delta-E=       -0.035575308907 Rises=F Damp=F
 DIIS: error= 4.83D-03 at cycle   3 NSaved=   3.
 NSaved= 3 IEnMin= 3 EnMin= -803.140490485337     IErMin= 3 ErrMin= 4.83D-03
 ErrMax= 4.83D-03  0.00D+00 EMaxC= 1.00D-01 BMatC= 1.08D-02 BMatP= 1.54D-02
 IDIUse=3 WtCom= 9.52D-01 WtEn= 4.83D-02
 Coeff-Com: -0.139D+00 0.513D+00 0.626D+00
 Coeff-En:   0.000D+00 0.000D+00 0.100D+01
 Coeff:     -0.132D+00 0.488D+00 0.644D+00
 Gap=     0.250 Goal=   None    Shift=    0.000
 RMSDP=2.71D-04 MaxDP=1.15D-02 DE=-3.56D-02 OVMax= 2.40D-02

 Cycle   4  Pass 1  IDiag  1:
 RMSU=  1.94D-04    CP:  9.79D-01  8.34D-01  9.40D-01
 E= -803.147685715336     Delta-E=       -0.007195229999 Rises=F Damp=F
 DIIS: error= 1.59D-03 at cycle   4 NSaved=   4.
 NSaved= 4 IEnMin= 4 EnMin= -803.147685715336     IErMin= 4 ErrMin= 1.59D-03
 ErrMax= 1.59D-03  0.00D+00 EMaxC= 1.00D-01 BMatC= 7.31D-04 BMatP= 1.08D-02
 IDIUse=3 WtCom= 9.84D-01 WtEn= 1.59D-02
 Coeff-Com: -0.424D-01 0.106D+00 0.275D+00 0.661D+00
 Coeff-En:   0.000D+00 0.000D+00 0.246D-02 0.998D+00
 Coeff:     -0.418D-01 0.105D+00 0.271D+00 0.667D+00
 Gap=     0.249 Goal=   None    Shift=    0.000
 RMSDP=5.86D-05 MaxDP=2.08D-03 DE=-7.20D-03 OVMax= 4.99D-03

 Cycle   5  Pass 1  IDiag  1:
 RMSU=  3.05D-05    CP:  9.79D-01  8.14D-01  9.70D-01  7.92D-01
 E= -803.148273589093     Delta-E=       -0.000587873757 Rises=F Damp=F
 DIIS: error= 3.80D-04 at cycle   5 NSaved=   5.
 NSaved= 5 IEnMin= 5 EnMin= -803.148273589093     IErMin= 5 ErrMin= 3.80D-04
 ErrMax= 3.80D-04  0.00D+00 EMaxC= 1.00D-01 BMatC= 7.73D-05 BMatP= 7.31D-04
 IDIUse=3 WtCom= 9.96D-01 WtEn= 3.80D-03
 Coeff-Com: -0.219D-01 0.475D-01 0.138D+00 0.382D+00 0.454D+00
 Coeff-En:   0.000D+00 0.000D+00 0.000D+00 0.000D+00 0.100D+01
 Coeff:     -0.218D-01 0.473D-01 0.137D+00 0.381D+00 0.456D+00
 Gap=     0.248 Goal=   None    Shift=    0.000
 RMSDP=2.33D-05 MaxDP=1.09D-03 DE=-5.88D-04 OVMax= 1.14D-03

 Cycle   6  Pass 1  IDiag  1:
 RMSU=  1.22D-05    CP:  9.80D-01  8.12D-01  9.56D-01  7.45D-01  5.46D-01
 E= -803.148322240829     Delta-E=       -0.000048651735 Rises=F Damp=F
 DIIS: error= 6.05D-05 at cycle   6 NSaved=   6.
 NSaved= 6 IEnMin= 6 EnMin= -803.148322240829     IErMin= 6 ErrMin= 6.05D-05
 ErrMax= 6.05D-05  0.00D+00 EMaxC= 1.00D-01 BMatC= 2.64D-06 BMatP= 7.73D-05
 IDIUse=1 WtCom= 1.00D+00 WtEn= 0.00D+00
 Coeff-Com: -0.433D-02 0.760D-02 0.261D-01 0.944D-01 0.189D+00 0.687D+00
 Coeff:     -0.433D-02 0.760D-02 0.261D-01 0.944D-01 0.189D+00 0.687D+00
 Gap=     0.248 Goal=   None    Shift=    0.000
 RMSDP=4.49D-06 MaxDP=2.21D-04 DE=-4.87D-05 OVMax= 3.10D-04

 Cycle   7  Pass 1  IDiag  1:
 RMSU=  2.18D-06    CP:  9.80D-01  8.12D-01  9.59D-01  7.59D-01  5.82D-01
                    CP:  9.07D-01
 E= -803.148323774131     Delta-E=       -0.000001533302 Rises=F Damp=F
 DIIS: error= 9.72D-06 at cycle   7 NSaved=   7.
 NSaved= 7 IEnMin= 7 EnMin= -803.148323774131     IErMin= 7 ErrMin= 9.72D-06
 ErrMax= 9.72D-06  0.00D+00 EMaxC= 1.00D-01 BMatC= 5.26D-08 BMatP= 2.64D-06
 IDIUse=1 WtCom= 1.00D+00 WtEn= 0.00D+00
 Coeff-Com: -0.354D-03 0.394D-03 0.149D-02 0.826D-02 0.185D-01 0.147D+00
 Coeff-Com:  0.825D+00
 Coeff:     -0.354D-03 0.394D-03 0.149D-02 0.826D-02 0.185D-01 0.147D+00
 Coeff:      0.825D+00
 Gap=     0.248 Goal=   None    Shift=    0.000
 RMSDP=1.22D-06 MaxDP=5.30D-05 DE=-1.53D-06 OVMax= 5.01D-05

 Cycle   8  Pass 1  IDiag  1:
 RMSU=  8.82D-07    CP:  9.80D-01  8.12D-01  9.59D-01  7.57D-01  5.88D-01
                    CP:  9.54D-01  9.25D-01
 E= -803.148323791676     Delta-E=       -0.000000017545 Rises=F Damp=F
 DIIS: error= 7.43D-06 at cycle   8 NSaved=   8.
 NSaved= 8 IEnMin= 8 EnMin= -803.148323791676     IErMin= 8 ErrMin= 7.43D-06
 ErrMax= 7.43D-06  0.00D+00 EMaxC= 1.00D-01 BMatC= 2.73D-08 BMatP= 5.26D-08
 IDIUse=1 WtCom= 1.00D+00 WtEn= 0.00D+00
 Coeff-Com:  0.172D-03-0.437D-03-0.138D-02-0.341D-02-0.715D-02 0.215D-01
 Coeff-Com:  0.479D+00 0.512D+00
 Coeff:      0.172D-03-0.437D-03-0.138D-02-0.341D-02-0.715D-02 0.215D-01
 Coeff:      0.479D+00 0.512D+00
 Gap=     0.248 Goal=   None    Shift=    0.000
 RMSDP=4.95D-07 MaxDP=2.31D-05 DE=-1.75D-08 OVMax= 2.91D-05

 Cycle   9  Pass 1  IDiag  1:
 RMSU=  1.67D-07    CP:  9.80D-01  8.12D-01  9.59D-01  7.57D-01  5.83D-01
                    CP:  9.61D-01  1.00D+00  5.68D-01
 E= -803.148323808500     Delta-E=       -0.000000016823 Rises=F Damp=F
 DIIS: error= 6.29D-07 at cycle   9 NSaved=   9.
 NSaved= 9 IEnMin= 9 EnMin= -803.148323808500     IErMin= 9 ErrMin= 6.29D-07
 ErrMax= 6.29D-07  0.00D+00 EMaxC= 1.00D-01 BMatC= 2.96D-10 BMatP= 2.73D-08
 IDIUse=1 WtCom= 1.00D+00 WtEn= 0.00D+00
 Coeff-Com:  0.657D-04-0.149D-03-0.462D-03-0.139D-02-0.323D-02-0.149D-02
 Coeff-Com:  0.949D-01 0.147D+00 0.765D+00
 Coeff:      0.657D-04-0.149D-03-0.462D-03-0.139D-02-0.323D-02-0.149D-02
 Coeff:      0.949D-01 0.147D+00 0.765D+00
 Gap=     0.248 Goal=   None    Shift=    0.000
 RMSDP=6.94D-08 MaxDP=1.87D-06 DE=-1.68D-08 OVMax= 2.75D-06

 Cycle  10  Pass 1  IDiag  1:
 RMSU=  3.90D-08    CP:  9.80D-01  8.12D-01  9.59D-01  7.57D-01  5.83D-01
                    CP:  9.62D-01  1.01D+00  6.09D-01  8.36D-01
 E= -803.148323808716     Delta-E=       -0.000000000216 Rises=F Damp=F
 DIIS: error= 2.34D-07 at cycle  10 NSaved=  10.
 NSaved=10 IEnMin=10 EnMin= -803.148323808716     IErMin=10 ErrMin= 2.34D-07
 ErrMax= 2.34D-07  0.00D+00 EMaxC= 1.00D-01 BMatC= 2.21D-11 BMatP= 2.96D-10
 IDIUse=1 WtCom= 1.00D+00 WtEn= 0.00D+00
 Coeff-Com:  0.751D-05-0.131D-04-0.366D-04-0.147D-03-0.322D-03-0.141D-02
 Coeff-Com: -0.424D-02 0.638D-02 0.222D+00 0.777D+00
 Coeff:      0.751D-05-0.131D-04-0.366D-04-0.147D-03-0.322D-03-0.141D-02
 Coeff:     -0.424D-02 0.638D-02 0.222D+00 0.777D+00
 Gap=     0.248 Goal=   None    Shift=    0.000
 RMSDP=1.99D-08 MaxDP=1.22D-06 DE=-2.16D-10 OVMax= 3.09D-06

 Cycle  11  Pass 1  IDiag  1:
 RMSU=  1.17D-08    CP:  9.80D-01  8.12D-01  9.59D-01  7.57D-01  5.83D-01
                    CP:  9.63D-01  1.01D+00  6.07D-01  8.99D-01  9.27D-01
 E= -803.148323808732     Delta-E=       -0.000000000016 Rises=F Damp=F
 DIIS: error= 1.56D-07 at cycle  11 NSaved=  11.
 NSaved=11 IEnMin=11 EnMin= -803.148323808732     IErMin=11 ErrMin= 1.56D-07
 ErrMax= 1.56D-07  0.00D+00 EMaxC= 1.00D-01 BMatC= 9.63D-12 BMatP= 2.21D-11
 IDIUse=1 WtCom= 1.00D+00 WtEn= 0.00D+00
 Coeff-Com: -0.144D-08 0.303D-05 0.117D-04 0.108D-04 0.626D-04-0.871D-03
 Coeff-Com: -0.119D-01-0.999D-02 0.645D-01 0.467D+00 0.491D+00
 Coeff:     -0.144D-08 0.303D-05 0.117D-04 0.108D-04 0.626D-04-0.871D-03
 Coeff:     -0.119D-01-0.999D-02 0.645D-01 0.467D+00 0.491D+00
 Gap=     0.248 Goal=   None    Shift=    0.000
 RMSDP=6.81D-09 MaxDP=3.05D-07 DE=-1.58D-11 OVMax= 7.42D-07

 Error on total polarization charges =  0.00593
 SCF Done:  E(RPBE1PBE) =  -803.148323809     A.U. after   11 cycles
            NFock= 11  Conv=0.68D-08     -V/T= 2.0043
 KE= 7.996722656072D+02 PE=-3.350330743819D+03 EE= 1.022250420522D+03
 Leave Link  502 at Fri May  3 18:42:06 2024, MaxMem=  8053063680 cpu:             365.7 elap:              23.0
 (Enter /share/apps/g16.b01_avx2/g16/l601.exe)
 Copying SCF densities to generalized density rwf, IOpCl= 0 IROHF=0.

 **********************************************************************

            Population analysis using the SCF Density.

 **********************************************************************

 Orbital symmetries:
       Occupied  (A) (A) (A) (A) (A) (A) (A) (A) (A) (A) (A) (A)
                 (A) (A) (A) (A) (A) (A) (A) (A) (A) (A) (A) (A)
                 (A) (A) (A) (A) (A) (A) (A) (A) (A) (A) (A) (A)
                 (A) (A) (A) (A) (A) (A) (A) (A) (A)
       Virtual   (A) (A) (A) (A) (A) (A) (A) (A) (A) (A) (A) (A)
                 (A) (A) (A) (A) (A) (A) (A) (A) (A) (A) (A) (A)
                 (A) (A) (A) (A) (A) (A) (A) (A) (A) (A) (A) (A)
                 (A) (A) (A) (A) (A) (A) (A) (A) (A) (A) (A) (A)
                 (A) (A) (A) (A) (A) (A) (A) (A) (A) (A) (A) (A)
                 (A) (A) (A) (A) (A) (A) (A) (A) (A) (A) (A) (A)
                 (A) (A) (A) (A) (A) (A) (A) (A) (A) (A) (A) (A)
                 (A) (A) (A) (A) (A) (A) (A) (A) (A) (A) (A) (A)
                 (A) (A) (A) (A) (A) (A) (A) (A) (A) (A) (A) (A)
                 (A) (A) (A) (A) (A) (A) (A) (A) (A) (A) (A) (A)
                 (A) (A) (A) (A) (A) (A) (A) (A) (A) (A) (A) (A)
                 (A) (A) (A) (A) (A) (A) (A) (A) (A) (A) (A) (A)
                 (A) (A) (A) (A) (A) (A) (A) (A) (A) (A) (A) (A)
                 (A) (A) (A) (A) (A) (A) (A) (A) (A) (A) (A) (A)
                 (A) (A) (A) (A) (A) (A) (A) (A) (A) (A) (A) (A)
                 (A) (A) (A) (A) (A) (A) (A) (A) (A) (A) (A) (A)
                 (A) (A) (A) (A) (A) (A) (A) (A) (A) (A) (A) (A)
                 (A) (A) (A) (A) (A) (A) (A) (A) (A) (A) (A) (A)
                 (A) (A) (A) (A) (A) (A) (A) (A) (A) (A) (A) (A)
                 (A) (A) (A) (A) (A) (A) (A) (A) (A) (A) (A) (A)
                 (A) (A) (A) (A) (A) (A) (A) (A) (A) (A) (A) (A)
                 (A) (A) (A) (A) (A) (A) (A) (A) (A) (A) (A) (A)
                 (A) (A) (A) (A) (A) (A) (A) (A) (A) (A) (A) (A)
                 (A) (A) (A) (A) (A) (A) (A) (A) (A) (A) (A) (A)
                 (A) (A) (A) (A) (A) (A) (A) (A) (A) (A) (A) (A)
                 (A) (A) (A) (A) (A) (A) (A) (A) (A) (A) (A) (A)
                 (A) (A) (A) (A) (A) (A) (A) (A) (A) (A) (A) (A)
                 (A) (A) (A) (A) (A) (A) (A) (A) (A)
 The electronic state is 1-A.
 Alpha  occ. eigenvalues --  -24.82143 -24.81956 -24.81956 -24.81783 -24.81783
 Alpha  occ. eigenvalues --  -19.25367 -10.35960 -10.35711 -10.35704 -10.35518
 Alpha  occ. eigenvalues --  -10.35518 -10.33241  -1.30333  -1.29726  -1.29167
 Alpha  occ. eigenvalues --   -1.28494  -1.28179  -1.08961  -0.93180  -0.81610
 Alpha  occ. eigenvalues --   -0.81124  -0.69813  -0.69804  -0.62893  -0.62173
 Alpha  occ. eigenvalues --   -0.61299  -0.57702  -0.57482  -0.56039  -0.55310
 Alpha  occ. eigenvalues --   -0.54894  -0.52523  -0.51568  -0.49880  -0.49464
 Alpha  occ. eigenvalues --   -0.47602  -0.47167  -0.46258  -0.44957  -0.43003
 Alpha  occ. eigenvalues --   -0.41885  -0.37883  -0.35319  -0.28509  -0.28303
 Alpha virt. eigenvalues --   -0.03471  -0.02951  -0.02934   0.04665   0.06420
 Alpha virt. eigenvalues --    0.10120   0.12833   0.14397   0.16465   0.16908
 Alpha virt. eigenvalues --    0.18209   0.19358   0.19626   0.20511   0.25301
 Alpha virt. eigenvalues --    0.25380   0.26081   0.26521   0.27546   0.29039
 Alpha virt. eigenvalues --    0.29517   0.31369   0.32402   0.33900   0.33924
 Alpha virt. eigenvalues --    0.35498   0.36644   0.38600   0.40198   0.40275
 Alpha virt. eigenvalues --    0.40447   0.40470   0.42324   0.42975   0.44696
 Alpha virt. eigenvalues --    0.46129   0.46177   0.47504   0.49555   0.52272
 Alpha virt. eigenvalues --    0.54766   0.57115   0.59837   0.61246   0.61993
 Alpha virt. eigenvalues --    0.63045   0.63959   0.65875   0.66396   0.66654
 Alpha virt. eigenvalues --    0.69742   0.70363   0.72454   0.72744   0.74182
 Alpha virt. eigenvalues --    0.79166   0.79401   0.80354   0.81883   0.82323
 Alpha virt. eigenvalues --    0.83519   0.84561   0.84644   0.85430   0.86719
 Alpha virt. eigenvalues --    0.87395   0.90359   0.92284   0.94654   0.95799
 Alpha virt. eigenvalues --    0.99021   1.00047   1.00876   1.02985   1.07299
 Alpha virt. eigenvalues --    1.08496   1.08695   1.09482   1.10194   1.11875
 Alpha virt. eigenvalues --    1.12995   1.14219   1.22853   1.23153   1.24465
 Alpha virt. eigenvalues --    1.26851   1.30104   1.30413   1.35222   1.39131
 Alpha virt. eigenvalues --    1.40253   1.41648   1.41751   1.41901   1.44171
 Alpha virt. eigenvalues --    1.48878   1.53918   1.55603   1.57634   1.62489
 Alpha virt. eigenvalues --    1.68556   1.69011   1.71456   1.72286   1.72732
 Alpha virt. eigenvalues --    1.76132   1.78005   1.78302   1.79846   1.83641
 Alpha virt. eigenvalues --    1.90340   1.92370   1.94063   1.94146   1.97804
 Alpha virt. eigenvalues --    1.98676   2.02688   2.02885   2.04252   2.06193
 Alpha virt. eigenvalues --    2.07226   2.09609   2.10500   2.11563   2.11671
 Alpha virt. eigenvalues --    2.13468   2.17572   2.19181   2.21729   2.22484
 Alpha virt. eigenvalues --    2.25596   2.30952   2.32213   2.32350   2.39822
 Alpha virt. eigenvalues --    2.41071   2.43669   2.47543   2.47941   2.49169
 Alpha virt. eigenvalues --    2.52020   2.54305   2.56292   2.60203   2.60300
 Alpha virt. eigenvalues --    2.60753   2.61316   2.64409   2.68170   2.75530
 Alpha virt. eigenvalues --    2.76246   2.76899   2.77429   2.78707   2.81419
 Alpha virt. eigenvalues --    2.82020   2.83494   2.84150   2.84394   2.86725
 Alpha virt. eigenvalues --    2.87876   2.89938   2.90986   2.91412   2.92779
 Alpha virt. eigenvalues --    2.94082   2.95352   2.98534   3.00625   3.02853
 Alpha virt. eigenvalues --    3.03440   3.04067   3.05108   3.06827   3.09204
 Alpha virt. eigenvalues --    3.12609   3.13787   3.14787   3.15653   3.16136
 Alpha virt. eigenvalues --    3.17787   3.19210   3.19652   3.24908   3.27077
 Alpha virt. eigenvalues --    3.28292   3.29942   3.35106   3.36810   3.39099
 Alpha virt. eigenvalues --    3.41448   3.41902   3.42964   3.43934   3.44123
 Alpha virt. eigenvalues --    3.46355   3.48453   3.49047   3.51977   3.54521
 Alpha virt. eigenvalues --    3.59025   3.60195   3.61702   3.64678   3.70088
 Alpha virt. eigenvalues --    3.71273   3.75571   3.77672   3.82277   3.84090
 Alpha virt. eigenvalues --    3.87898   3.91140   3.92569   4.01254   4.03447
 Alpha virt. eigenvalues --    4.06918   4.08465   4.08824   4.09083   4.12874
 Alpha virt. eigenvalues --    4.13218   4.14417   4.16132   4.16864   4.21967
 Alpha virt. eigenvalues --    4.23783   4.27416   4.29027   4.31058   4.32330
 Alpha virt. eigenvalues --    4.41052   4.47131   4.51706   4.55430   4.67173
 Alpha virt. eigenvalues --    4.67573   4.74749   4.78370   4.80709   4.84013
 Alpha virt. eigenvalues --    4.87251   5.06027   5.17659   5.23504   5.27495
 Alpha virt. eigenvalues --    5.30723   5.41913   5.43884   5.44457   5.51274
 Alpha virt. eigenvalues --    5.65209   5.74497   5.79883   6.02063   6.09569
 Alpha virt. eigenvalues --    6.31680   6.40673   6.67673   6.84648   6.84896
 Alpha virt. eigenvalues --    6.85140   6.85158   6.85395   6.86034   6.86160
 Alpha virt. eigenvalues --    6.86331   6.86452   6.87117   6.90254   6.90476
 Alpha virt. eigenvalues --    6.92328   6.94288   6.95566   6.96522   6.98341
 Alpha virt. eigenvalues --    6.99781   7.03467   7.03894   7.08303   7.11529
 Alpha virt. eigenvalues --    7.12416   7.14110   7.18360   7.21125   7.23445
 Alpha virt. eigenvalues --    7.24476   7.25322   7.30363   7.35391   7.37241
 Alpha virt. eigenvalues --    7.40817   7.44554   7.57529   7.61301   7.65833
 Alpha virt. eigenvalues --    7.96907   8.29271   8.31416   8.33348   8.35252
 Alpha virt. eigenvalues --    8.39729   8.40354   8.50685   8.53169   8.55790
 Alpha virt. eigenvalues --    8.67125   8.70208   8.72711   8.74157   8.76615
 Alpha virt. eigenvalues --    8.77598   8.83833   8.85945   8.90711   8.93414
 Alpha virt. eigenvalues --    8.98946   8.99115   9.04088   9.05584   9.09906
 Alpha virt. eigenvalues --    9.33900  22.09523  22.79054  22.81905  22.91192
 Alpha virt. eigenvalues --   22.94043  23.48022  44.00567  57.15297  57.36916
 Alpha virt. eigenvalues --   57.42254  57.47826  57.60034
          Condensed to atoms (all electrons):
               1          2          3          4          5          6
     1  C    5.268211   0.292758   0.292758  -0.055863  -0.055863   0.018830
     2  C    0.292758   4.979783   0.004052   0.342449   0.019486  -0.049481
     3  C    0.292758   0.004052   4.979783   0.019486   0.342449  -0.049481
     4  C   -0.055863   0.342449   0.019486   4.995801  -0.054799   0.371228
     5  C   -0.055863   0.019486   0.342449  -0.054799   4.995802   0.371228
     6  C    0.018830  -0.049481  -0.049481   0.371228   0.371228   4.964024
     7  O    0.260086  -0.020706  -0.020706   0.007398   0.007398  -0.000018
     8  H   -0.032411  -0.010187  -0.010187   0.000988   0.000988  -0.000131
     9  F   -0.062253   0.318772   0.003248  -0.044537  -0.001087   0.005887
    10  F   -0.062253   0.003248   0.318772  -0.001087  -0.044537   0.005887
    11  F    0.008855  -0.000635  -0.044815   0.006686   0.284443  -0.041021
    12  F    0.008855  -0.044815  -0.000635   0.284443   0.006686  -0.041021
    13  F   -0.001067   0.006179   0.006179  -0.043531  -0.043531   0.292180
               7          8          9         10         11         12
     1  C    0.260086  -0.032411  -0.062253  -0.062253   0.008855   0.008855
     2  C   -0.020706  -0.010187   0.318772   0.003248  -0.000635  -0.044815
     3  C   -0.020706  -0.010187   0.003248   0.318772  -0.044815  -0.000635
     4  C    0.007398   0.000988  -0.044537  -0.001087   0.006686   0.284443
     5  C    0.007398   0.000988  -0.001087  -0.044537   0.284443   0.006686
     6  C   -0.000018  -0.000131   0.005887   0.005887  -0.041021  -0.041021
     7  O    7.913010   0.309711  -0.001573  -0.001573  -0.000049  -0.000049
     8  H    0.309711   0.369649   0.000816   0.000816   0.000002   0.000002
     9  F   -0.001573   0.000816   8.948349  -0.000021   0.000000   0.001175
    10  F   -0.001573   0.000816  -0.000021   8.948349   0.001175   0.000000
    11  F   -0.000049   0.000002   0.000000   0.001175   8.955818  -0.000022
    12  F   -0.000049   0.000002   0.001175   0.000000  -0.000022   8.955818
    13  F   -0.000000  -0.000001  -0.000021  -0.000021   0.001149   0.001149
              13
     1  C   -0.001067
     2  C    0.006179
     3  C    0.006179
     4  C   -0.043531
     5  C   -0.043531
     6  C    0.292180
     7  O   -0.000000
     8  H   -0.000001
     9  F   -0.000021
    10  F   -0.000021
    11  F    0.001149
    12  F    0.001149
    13  F    8.949777
 Mulliken charges:
               1
     1  C    0.119356
     2  C    0.159096
     3  C    0.159096
     4  C    0.171336
     5  C    0.171336
     6  C    0.151889
     7  O   -0.452929
     8  H    0.369945
     9  F   -0.168755
    10  F   -0.168755
    11  F   -0.171587
    12  F   -0.171587
    13  F   -0.168440
 Sum of Mulliken charges =  -0.00000
 Mulliken charges with hydrogens summed into heavy atoms:
               1
     1  C    0.119356
     2  C    0.159096
     3  C    0.159096
     4  C    0.171336
     5  C    0.171336
     6  C    0.151889
     7  O   -0.082984
     9  F   -0.168755
    10  F   -0.168755
    11  F   -0.171587
    12  F   -0.171587
    13  F   -0.168440
 Electronic spatial extent (au):  <R**2>=           1882.9669
 Charge=             -0.0000 electrons
 Dipole moment (field-independent basis, Debye):
    X=              1.1845    Y=             -0.0000    Z=              1.7945  Tot=              2.1502
 Quadrupole moment (field-independent basis, Debye-Ang):
   XX=            -65.8731   YY=            -71.5171   ZZ=            -59.8302
   XY=             -0.0000   XZ=              6.0676   YZ=              0.0000
 Traceless Quadrupole moment (field-independent basis, Debye-Ang):
   XX=             -0.1330   YY=             -5.7769   ZZ=              5.9099
   XY=             -0.0000   XZ=              6.0676   YZ=              0.0000
 Octapole moment (field-independent basis, Debye-Ang**2):
  XXX=              9.7651  YYY=             -0.0000  ZZZ=              2.4286  XYY=             -4.2348
  XXY=             -0.0000  XXZ=             19.8877  XZZ=              1.9016  YZZ=             -0.0000
  YYZ=              0.4029  XYZ=              0.0000
 Hexadecapole moment (field-independent basis, Debye-Ang**3):
 XXXX=           -965.0340 YYYY=           -964.2003 ZZZZ=            -52.8402 XXXY=             -0.0000
 XXXZ=             66.5080 YYYX=             -0.0000 YYYZ=             -0.0000 ZZZX=              7.0714
 ZZZY=             -0.0000 XXYY=           -337.0450 XXZZ=           -152.2422 YYZZ=           -156.0947
 XXYZ=              0.0000 YYXZ=              1.1155 ZZXY=             -0.0000
 N-N= 7.252597338803D+02 E-N=-3.350330737988D+03  KE= 7.996722656072D+02
 No NMR shielding tensors so no spin-rotation constants.
 Leave Link  601 at Fri May  3 18:42:06 2024, MaxMem=  8053063680 cpu:               1.3 elap:               0.1
 (Enter /share/apps/g16.b01_avx2/g16/l701.exe)
 ... and contract with generalized density number  0.
 Compute integral first derivatives.
 R6Disp: Adding Grimme-D3 dispersion energy 1st derivatives to the gradient.
   1 Symmetry operations used in ECPInt.
 ECPInt:  NShTT=    9316 NPrTT=   30648 LenC2=    8637 LenP2D=   21364.
 LDataN:  DoStor=T MaxTD1= 7 Len=  274
 D1PCM: PCM CHGder 1st derivatives, ID1Alg=3 FixD1E=F DoIter=F DoCFld=F I1PDM=0.
 GePol: Maximum number of non-zero 1st derivatives   =     206
 Leave Link  701 at Fri May  3 18:42:06 2024, MaxMem=  8053063680 cpu:               7.3 elap:               0.5
 (Enter /share/apps/g16.b01_avx2/g16/l702.exe)
 L702 exits ... SP integral derivatives will be done elsewhere.
 Leave Link  702 at Fri May  3 18:42:07 2024, MaxMem=  8053063680 cpu:               0.1 elap:               0.0
 (Enter /share/apps/g16.b01_avx2/g16/l703.exe)
 Integral derivatives from FoFJK, PRISM(SPDF).
 Compute integral first derivatives, UseDBF=F ICtDFT=           0.
 Calling FoFJK, ICntrl=      2127 FMM=F ISym2X=0 I1Cent= 0 IOpClX= 0 NMat=1 NMatS=1 NMatT=0.
 FoFJK:  IHMeth= 1 ICntrl=    2127 DoSepK=F KAlg= 0 I1Cent=           0 FoldK=F
 IRaf=         0 NMat=       1 IRICut=       1 DoRegI=T DoRafI=F ISym2E= 0 IDoP0=0 IntGTp=1.
 FoFCou: FMM=F IPFlag=           0 FMFlag=      100000 FMFlg1=         800
         NFxFlg=           0 DoJE=F BraDBF=F KetDBF=F FulRan=T
         wScrn=  0.000000 ICntrl=      2127 IOpCl=  0 I1Cent=           0 NGrid=           0
         NMat0=    1 NMatS0=      1 NMatT0=    0 NMatD0=    1 NMtDS0=    0 NMtDT0=    0
 Symmetry not used in FoFCou.
 Leave Link  703 at Fri May  3 18:42:18 2024, MaxMem=  8053063680 cpu:             184.4 elap:              11.5
 (Enter /share/apps/g16.b01_avx2/g16/l716.exe)
 Dipole        = 4.66019163D-01-8.25964277D-08 7.06010418D-01
 ***** Axes restored to original set *****
 -------------------------------------------------------------------
 Center     Atomic                   Forces (Hartrees/Bohr)
 Number     Number              X              Y              Z
 -------------------------------------------------------------------
      1        6           0.019722807    0.003966364    0.033359647
      2        6           0.001227326    0.000732405   -0.000922015
      3        6          -0.000620415    0.001582344    0.000069298
      4        6           0.004432145   -0.002297246   -0.004335575
      5        6          -0.005992161    0.002496224    0.001257551
      6        6          -0.002551374   -0.001580514   -0.003400647
      7        8          -0.023596775   -0.003074756   -0.041344039
      8        1          -0.001932533   -0.005370516    0.001001015
      9        9          -0.023381746    0.003374607   -0.001091482
     10        9           0.009096447   -0.011560587   -0.018517379
     11        9           0.021057418   -0.004455875   -0.000446016
     12        9          -0.010083995    0.009864344    0.016262717
     13        9           0.012622856    0.006323208    0.018106923
 -------------------------------------------------------------------
 Cartesian Forces:  Max     0.041344039 RMS     0.012923087
 Leave Link  716 at Fri May  3 18:42:18 2024, MaxMem=  8053063680 cpu:               0.1 elap:               0.0
 (Enter /share/apps/g16.b01_avx2/g16/l103.exe)

 GradGradGradGradGradGradGradGradGradGradGradGradGradGradGradGradGradGrad
 Berny optimization.
 FormGI is forming the generalized inverse of G from B-inverse, IUseBI=4.
 Internal  Forces:  Max     0.048216168 RMS     0.010853867
 Search for a local minimum.
 Step number   1 out of a maximum of   68
 All quantities printed in internal units (Hartrees-Bohrs-Radians)
 RMS Force = .10854D-01 SwitMx=.10000D-02 MixMth= 1
 Mixed Optimization -- RFO/linear search
 Second derivative matrix not updated -- first step.
 ITU=  0
     Eigenvalues ---    0.01295   0.01929   0.02070   0.02070   0.02070
     Eigenvalues ---    0.02070   0.02070   0.02070   0.02070   0.02070
     Eigenvalues ---    0.16000   0.25000   0.25000   0.25000   0.25000
     Eigenvalues ---    0.25000   0.25000   0.25000   0.25000   0.25000
     Eigenvalues ---    0.40989   0.41797   0.41797   0.45389   0.45389
     Eigenvalues ---    0.45389   0.45389   0.55021   0.55021   0.55021
     Eigenvalues ---    0.55021   0.55021   0.55473
 RFO step:  Lambda=-1.46605050D-02 EMin= 1.29493792D-02
 Linear search not attempted -- first point.
 Iteration  1 RMS(Cart)=  0.03749837 RMS(Int)=  0.00055513
 Iteration  2 RMS(Cart)=  0.00064590 RMS(Int)=  0.00008450
 Iteration  3 RMS(Cart)=  0.00000039 RMS(Int)=  0.00008450
 ITry= 1 IFail=0 DXMaxC= 1.14D-01 DCOld= 1.00D+10 DXMaxT= 3.00D-01 DXLimC= 3.00D+00 Rises=F
 Variable       Old X    -DE/DX   Delta X   Delta X   Delta X     New X
                                 (Linear)    (Quad)   (Total)
    R1        2.64826  -0.01616   0.00000  -0.03431  -0.03427   2.61399
    R2        2.64826  -0.01616   0.00000  -0.03431  -0.03427   2.61399
    R3        2.70231  -0.04822   0.00000  -0.11357  -0.11357   2.58874
    R4        2.64826  -0.01760   0.00000  -0.03756  -0.03756   2.61070
    R5        2.55113  -0.02361   0.00000  -0.04180  -0.04180   2.50933
    R6        2.64826  -0.01760   0.00000  -0.03756  -0.03756   2.61070
    R7        2.55113  -0.02361   0.00000  -0.04180  -0.04180   2.50933
    R8        2.64826  -0.01816   0.00000  -0.03893  -0.03897   2.60929
    R9        2.55113  -0.02151   0.00000  -0.03808  -0.03808   2.51305
   R10        2.64826  -0.01816   0.00000  -0.03893  -0.03897   2.60929
   R11        2.55113  -0.02151   0.00000  -0.03808  -0.03808   2.51305
   R12        2.55113  -0.02296   0.00000  -0.04065  -0.04065   2.51048
   R13        1.81414   0.00465   0.00000   0.00817   0.00817   1.82230
    A1        2.09440  -0.00451   0.00000  -0.01640  -0.01654   2.07786
    A2        2.09440   0.00225   0.00000   0.00820   0.00787   2.10226
    A3        2.09440   0.00225   0.00000   0.00820   0.00787   2.10226
    A4        2.09440   0.00281   0.00000   0.01093   0.01101   2.10541
    A5        2.09440   0.00003   0.00000  -0.00004  -0.00008   2.09431
    A6        2.09440  -0.00284   0.00000  -0.01089  -0.01094   2.08346
    A7        2.09440   0.00281   0.00000   0.01093   0.01101   2.10541
    A8        2.09440   0.00003   0.00000  -0.00004  -0.00008   2.09431
    A9        2.09440  -0.00284   0.00000  -0.01089  -0.01094   2.08346
   A10        2.09440  -0.00071   0.00000  -0.00302  -0.00301   2.09138
   A11        2.09440   0.00147   0.00000   0.00572   0.00572   2.10012
   A12        2.09440  -0.00076   0.00000  -0.00271  -0.00271   2.09169
   A13        2.09440  -0.00071   0.00000  -0.00302  -0.00301   2.09138
   A14        2.09440   0.00147   0.00000   0.00572   0.00572   2.10012
   A15        2.09440  -0.00076   0.00000  -0.00271  -0.00271   2.09169
   A16        2.09440   0.00032   0.00000   0.00057   0.00054   2.09493
   A17        2.09440  -0.00016   0.00000  -0.00029  -0.00027   2.09412
   A18        2.09440  -0.00016   0.00000  -0.00029  -0.00027   2.09412
   A19        1.91063  -0.00627   0.00000  -0.03592  -0.03592   1.87471
    D1       -0.00000  -0.00007   0.00000  -0.00278  -0.00272  -0.00272
    D2       -3.14159   0.00001   0.00000  -0.00028  -0.00022   3.14138
    D3       -3.14159   0.00139   0.00000   0.04023   0.04016  -3.10143
    D4        0.00000   0.00148   0.00000   0.04273   0.04267   0.04268
    D5        0.00000   0.00007   0.00000   0.00278   0.00272   0.00273
    D6        3.14159  -0.00001   0.00000   0.00028   0.00022  -3.14138
    D7        3.14159  -0.00139   0.00000  -0.04023  -0.04016   3.10143
    D8       -0.00000  -0.00148   0.00000  -0.04273  -0.04267  -0.04267
    D9       -1.57080  -0.00073   0.00000  -0.02151  -0.02175  -1.59254
   D10        1.57080   0.00073   0.00000   0.02151   0.02175   1.59254
   D11       -0.00000   0.00002   0.00000   0.00076   0.00075   0.00075
   D12       -3.14159   0.00000   0.00000   0.00025   0.00025  -3.14134
   D13        3.14159  -0.00007   0.00000  -0.00174  -0.00174   3.13985
   D14       -0.00000  -0.00008   0.00000  -0.00225  -0.00225  -0.00225
   D15        0.00000  -0.00002   0.00000  -0.00076  -0.00075  -0.00075
   D16        3.14159  -0.00000   0.00000  -0.00025  -0.00025   3.14134
   D17       -3.14159   0.00007   0.00000   0.00174   0.00174  -3.13985
   D18       -0.00000   0.00008   0.00000   0.00225   0.00225   0.00224
   D19        0.00000   0.00004   0.00000   0.00126   0.00126   0.00126
   D20       -3.14159  -0.00010   0.00000  -0.00298  -0.00298   3.13861
   D21        3.14159   0.00005   0.00000   0.00177   0.00176  -3.13983
   D22       -0.00000  -0.00009   0.00000  -0.00247  -0.00248  -0.00248
   D23       -0.00000  -0.00004   0.00000  -0.00126  -0.00126  -0.00126
   D24        3.14159   0.00010   0.00000   0.00298   0.00298  -3.13861
   D25       -3.14159  -0.00005   0.00000  -0.00177  -0.00176   3.13983
   D26        0.00000   0.00009   0.00000   0.00247   0.00248   0.00248
         Item               Value     Threshold  Converged?
 Maximum Force            0.048216     0.000450     NO 
 RMS     Force            0.010854     0.000300     NO 
 Maximum Displacement     0.114384     0.001800     NO 
 RMS     Displacement     0.037741     0.001200     NO 
 Predicted change in Energy=-7.618830D-03
 Lowest energy point so far.  Saving SCF results.
 GradGradGradGradGradGradGradGradGradGradGradGradGradGradGradGradGradGrad

 Leave Link  103 at Fri May  3 18:42:18 2024, MaxMem=  8053063680 cpu:               0.2 elap:               0.0
 (Enter /share/apps/g16.b01_avx2/g16/l202.exe)
                          Input orientation:                          
 ---------------------------------------------------------------------
 Center     Atomic      Atomic             Coordinates (Angstroms)
 Number     Number       Type             X           Y           Z
 ---------------------------------------------------------------------
      1          6           0        0.363698   -0.261540    0.317908
      2          6           0        0.953455   -0.893561   -0.761981
      3          6           0       -0.993800    0.001880    0.282806
      4          6           0        0.199991   -1.260813   -1.860172
      5          6           0       -1.753458   -0.362524   -0.812062
      6          6           0       -1.154773   -0.995069   -1.883516
      7          8           0        1.122081    0.143116    1.384557
      8          1           0        1.131881   -0.579945    2.022525
      9          9           0        2.255214   -1.155292   -0.748218
     10          9           0       -1.579181    0.607948    1.309100
     11          9           0       -3.058161   -0.106584   -0.839312
     12          9           0        0.773151   -1.868404   -2.894976
     13          9           0       -1.881669   -1.343812   -2.939400
 ---------------------------------------------------------------------
                    Distance matrix (angstroms):
                    1          2          3          4          5
     1  C    0.000000
     2  C    1.383266   0.000000
     3  C    1.383266   2.384365   0.000000
     4  C    2.401953   1.381523   2.758965   0.000000
     5  C    2.401953   2.758965   1.381523   2.391949   0.000000
     6  C    2.773101   2.390141   2.390141   1.380779   1.380779
     7  O    1.369902   2.389719   2.389719   3.653701   3.653701
     8  H    1.896630   2.807786   2.807786   4.050597   4.050597
     9  F    2.348031   1.327881   3.599743   2.339128   4.086809
    10  F    2.348031   3.599743   1.327881   4.086809   2.339128
    11  F    3.615562   4.088811   2.352126   3.604158   1.329849
    12  F    3.615562   2.352126   4.088811   1.329849   3.604158
    13  F    4.101590   3.603027   3.603027   2.346258   2.346258
                    6          7          8          9         10
     6  C    0.000000
     7  O    4.142443   0.000000
     8  H    4.545138   0.964322   0.000000
     9  F    3.597581   2.742003   3.044655   0.000000
    10  F    3.597581   2.742003   3.044655   4.695121   0.000000
    11  F    2.345774   4.741557   5.096139   5.416645   2.704368
    12  F    2.345774   4.741557   5.096139   2.704368   5.416645
    13  F    1.328491   5.470838   5.855397   4.685149   4.685149
                   11         12         13
    11  F    0.000000
    12  F    4.691345   0.000000
    13  F    2.706518   2.706518   0.000000
 Stoichiometry    C6HF5O
 Framework group  C1[X(C6HF5O)]
 Deg. of freedom    33
 Full point group                 C1      NOp   1
 RotChk:  IX=0 Diff= 4.55D-04
 Largest Abelian subgroup         C1      NOp   1
 Largest concise Abelian subgroup C1      NOp   1
                         Standard orientation:                         
 ---------------------------------------------------------------------
 Center     Atomic      Atomic             Coordinates (Angstroms)
 Number     Number       Type             X           Y           Z
 ---------------------------------------------------------------------
      1          6           0        1.385450   -0.000000   -0.014234
      2          6           0        0.683943   -1.192183   -0.010583
      3          6           0        0.683943    1.192183   -0.010583
      4          6           0       -0.697535   -1.195974   -0.000153
      5          6           0       -0.697535    1.195974   -0.000152
      6          6           0       -1.387579    0.000000    0.005810
      7          8           0        2.754133   -0.000000   -0.071993
      8          1           0        3.081254   -0.000000    0.835150
      9          9           0        1.338433   -2.347561   -0.014236
     10          9           0        1.338434    2.347561   -0.014237
     11          9           0       -1.365875    2.345672    0.003594
     12          9           0       -1.365876   -2.345672    0.003593
     13          9           0       -2.716054    0.000000    0.012415
 ---------------------------------------------------------------------
 Rotational constants (GHZ):           1.0536307           1.0362695           0.5232871
 Leave Link  202 at Fri May  3 18:42:18 2024, MaxMem=  8053063680 cpu:               0.0 elap:               0.0
 (Enter /share/apps/g16.b01_avx2/g16/l301.exe)
 Standard basis: def2TZVP (5D, 7F)
 Ernie: Thresh=  0.10000D-02 Tol=  0.10000D-05 Strict=F.
 There are   438 symmetry adapted cartesian basis functions of A   symmetry.
 There are   378 symmetry adapted basis functions of A   symmetry.
   378 basis functions,   620 primitive gaussians,   438 cartesian basis functions
    45 alpha electrons       45 beta electrons
       nuclear repulsion energy       737.5155468824 Hartrees.
 IExCor= 1009 DFT=T Ex+Corr=PBE1PBE ExCW=0 ScaHFX=  0.250000
 ScaDFX=  0.750000  0.750000  1.000000  1.000000 ScalE2=  1.000000  1.000000
 IRadAn=  99590 IRanWt=     -1 IRanGd=            0 ICorTp=0 IEmpDi=131
 NAtoms=   13 NActive=   13 NUniq=   13 SFac= 1.00D+00 NAtFMM=   60 NAOKFM=F Big=F
 Integral buffers will be    131072 words long.
 Raffenetti 2 integral format.
 Two-electron integral symmetry is turned on.
 R6Disp:  Grimme-D3 Dispersion energy=       -0.0056148376 Hartrees.
 Nuclear repulsion after empirical dispersion term =      737.5099320448 Hartrees.
 ------------------------------------------------------------------------------
 Polarizable Continuum Model (PCM)
 =================================
 Model                : PCM.
 Atomic radii         : UFF (Universal Force Field).
 Polarization charges : Total charges.
 Charge compensation  : None.
 Solution method      : On-the-fly selection.
 Cavity type          : Scaled VdW (van der Waals Surface) (Alpha=1.100).
 Cavity algorithm     : GePol (No added spheres)
                        Default sphere list used, NSphG=   13.
                        Lebedev-Laikov grids with approx.  5.0 points / Ang**2.
                        Smoothing algorithm: York/Karplus (Gamma=1.0000).
                        Polarization charges: spherical gaussians, with
                                              point-specific exponents (IZeta= 3).
                        Self-potential: point-specific (ISelfS= 7).
                        Self-field    : sphere-specific E.n sum rule (ISelfD= 2).
 1st derivatives      : Analytical E(r).r(x)/FMM algorithm (CHGder, D1EAlg=3).
                        Cavity 1st derivative terms included.
 Solvent              : Water, Eps=  78.355300 Eps(inf)=   1.777849
 ------------------------------------------------------------------------------
 Spheres list:
 ISph  on   Nord     Re0    Alpha      Xe            Ye            Ze
    1   C      1    1.9255  1.100      1.385450     -0.000000     -0.014234
    2   C      2    1.9255  1.100      0.683943     -1.192183     -0.010583
    3   C      3    1.9255  1.100      0.683943      1.192183     -0.010583
    4   C      4    1.9255  1.100     -0.697535     -1.195974     -0.000153
    5   C      5    1.9255  1.100     -0.697535      1.195974     -0.000152
    6   C      6    1.9255  1.100     -1.387579      0.000000      0.005810
    7   O      7    1.7500  1.100      2.754133     -0.000000     -0.071993
    8   H      8    1.4430  1.100      3.081254     -0.000000      0.835150
    9   F      9    1.6820  1.100      1.338433     -2.347561     -0.014236
   10   F     10    1.6820  1.100      1.338434      2.347561     -0.014237
   11   F     11    1.6820  1.100     -1.365875      2.345672      0.003594
   12   F     12    1.6820  1.100     -1.365876     -2.345672      0.003593
   13   F     13    1.6820  1.100     -2.716054      0.000000      0.012415
 ------------------------------------------------------------------------------
 GePol: Number of generator spheres                  =      13
 GePol: Total number of spheres                      =      13
 GePol: Number of exposed spheres                    =      13 (100.00%)
 GePol: Number of points                             =    1450
 GePol: Average weight of points                     =       0.13
 GePol: Minimum weight of points                     =   0.45D-05
 GePol: Maximum weight of points                     =    0.20212
 GePol: Number of points with low weight             =      56
 GePol: Fraction of low-weight points (<1% of avg)   =       3.86%
 GePol: Cavity surface area                          =    185.739 Ang**2
 GePol: Cavity volume                                =    180.700 Ang**3
 Leave Link  301 at Fri May  3 18:42:18 2024, MaxMem=  8053063680 cpu:               0.3 elap:               0.0
 (Enter /share/apps/g16.b01_avx2/g16/l302.exe)
 NPDir=0 NMtPBC=     1 NCelOv=     1 NCel=       1 NClECP=     1 NCelD=      1
         NCelK=      1 NCelE2=     1 NClLst=     1 CellRange=     0.0.
 One-electron integrals computed using PRISM.
 One-electron integral symmetry used in STVInt
   1 Symmetry operations used in ECPInt.
 ECPInt:  NShTT=    9316 NPrTT=   30648 LenC2=    8657 LenP2D=   21464.
 LDataN:  DoStor=T MaxTD1= 6 Len=  172
 NBasis=   378 RedAO= T EigKep=  1.63D-05  NBF=   378
 NBsUse=   378 1.00D-06 EigRej= -1.00D+00 NBFU=   378
 Precomputing XC quadrature grid using
 IXCGrd= 4 IRadAn=       99590 IRanWt=          -1 IRanGd=           0 AccXCQ= 0.00D+00.
 Generated NRdTot=       0 NPtTot=           0 NUsed=           0 NTot=          32
 NSgBfM=   431   431   431   431   431 MxSgAt=    13 MxSgA2=    13.
 Leave Link  302 at Fri May  3 18:42:18 2024, MaxMem=  8053063680 cpu:               2.0 elap:               0.1
 (Enter /share/apps/g16.b01_avx2/g16/l303.exe)
 DipDrv:  MaxL=1.
 Leave Link  303 at Fri May  3 18:42:18 2024, MaxMem=  8053063680 cpu:               0.3 elap:               0.0
 (Enter /share/apps/g16.b01_avx2/g16/l401.exe)
 Initial guess from the checkpoint file:  "/scratch/Gau-8691.chk"
 B after Tr=     0.000000    0.000000   -0.000000
         Rot=    1.000000    0.000000    0.000032    0.000000 Ang=   0.00 deg.
 Guess basis will be translated and rotated to current coordinates.
 JPrj=2 DoOrth=T DoCkMO=T.
 Generating alternative initial guess.
 ExpMin= 9.52D-02 ExpMax= 3.55D+04 ExpMxC= 1.21D+03 IAcc=4 IRadAn=    199590 AccDes= 0.00D+00
 Harris functional with IExCor= 1009 and IRadAn=  199590 diagonalized for initial guess.
 HarFok:  IExCor= 1009 AccDes= 0.00D+00 IRadAn=    199590 IDoV= 1 UseB2=F ITyADJ=14
 ICtDFT=  3500011 ScaDFX=  1.000000  1.000000  1.000000  1.000000
 FoFCou: FMM=F IPFlag=           0 FMFlag=      100000 FMFlg1=           0
         NFxFlg=           0 DoJE=T BraDBF=F KetDBF=T FulRan=T
         wScrn=  0.000000 ICntrl=       500 IOpCl=  0 I1Cent=   200000004 NGrid=           0
         NMat0=    1 NMatS0=      1 NMatT0=    0 NMatD0=    1 NMtDS0=    0 NMtDT0=    0
 Petite list used in FoFCou.
 Harris En= -803.163511846644    
 Leave Link  401 at Fri May  3 18:42:19 2024, MaxMem=  8053063680 cpu:              18.5 elap:               1.2
 (Enter /share/apps/g16.b01_avx2/g16/l502.exe)
 Integral symmetry usage will be decided dynamically.
 Closed shell SCF:
 Using DIIS extrapolation, IDIIS=  1040.
 NGot=  8053063680 LenX=  8052669299 LenY=  8052477014
 Requested convergence on RMS density matrix=1.00D-08 within 128 cycles.
 Requested convergence on MAX density matrix=1.00D-06.
 Requested convergence on             energy=1.00D-06.
 No special actions if energy rises.
 Fock matrices will be formed incrementally for  20 cycles.

 Cycle   1  Pass 1  IDiag  1:
 FoFJK:  IHMeth= 1 ICntrl=       0 DoSepK=F KAlg= 0 I1Cent=           0 FoldK=F
 IRaf= 890000000 NMat=       1 IRICut=       1 DoRegI=T DoRafI=F ISym2E= 0 IDoP0=0 IntGTp=1.
 FoFCou: FMM=F IPFlag=           0 FMFlag=      100000 FMFlg1=           0
         NFxFlg=           0 DoJE=F BraDBF=F KetDBF=F FulRan=T
         wScrn=  0.000000 ICntrl=         0 IOpCl=  0 I1Cent=           0 NGrid=           0
         NMat0=    1 NMatS0=      1 NMatT0=    0 NMatD0=    1 NMtDS0=    0 NMtDT0=    0
 Symmetry not used in FoFCou.
 Inv3:  Mode=1 IEnd=     6307500.
 Iteration    1 A*A^-1 deviation from unit magnitude is 3.77D-15 for    232.
 Iteration    1 A*A^-1 deviation from orthogonality  is 1.39D-15 for    603    408.
 Iteration    1 A^-1*A deviation from unit magnitude is 3.55D-15 for    232.
 Iteration    1 A^-1*A deviation from orthogonality  is 1.55D-15 for   1264    520.
 E= -803.153048433889    
 DIIS: error= 2.27D-03 at cycle   1 NSaved=   1.
 NSaved= 1 IEnMin= 1 EnMin= -803.153048433889     IErMin= 1 ErrMin= 2.27D-03
 ErrMax= 2.27D-03  0.00D+00 EMaxC= 1.00D-01 BMatC= 3.58D-03 BMatP= 3.58D-03
 IDIUse=3 WtCom= 9.77D-01 WtEn= 2.27D-02
 Coeff-Com:  0.100D+01
 Coeff-En:   0.100D+01
 Coeff:      0.100D+01
 Gap=     0.785 Goal=   None    Shift=    0.000
 GapD=    0.785 DampG=2.000 DampE=1.000 DampFc=2.0000 IDamp=-1.
 RMSDP=5.22D-04 MaxDP=3.41D-02              OVMax= 1.11D-02

 Cycle   2  Pass 1  IDiag  1:
 RMSU=  5.21D-04    CP:  1.00D+00
 E= -803.155739980176     Delta-E=       -0.002691546287 Rises=F Damp=F
 DIIS: error= 6.81D-04 at cycle   2 NSaved=   2.
 NSaved= 2 IEnMin= 2 EnMin= -803.155739980176     IErMin= 2 ErrMin= 6.81D-04
 ErrMax= 6.81D-04  0.00D+00 EMaxC= 1.00D-01 BMatC= 2.93D-04 BMatP= 3.58D-03
 IDIUse=3 WtCom= 9.93D-01 WtEn= 6.81D-03
 Coeff-Com:  0.130D+00 0.870D+00
 Coeff-En:   0.000D+00 0.100D+01
 Coeff:      0.130D+00 0.870D+00
 Gap=     0.257 Goal=   None    Shift=    0.000
 RMSDP=9.92D-05 MaxDP=6.75D-03 DE=-2.69D-03 OVMax= 5.22D-03

 Cycle   3  Pass 1  IDiag  1:
 RMSU=  9.04D-05    CP:  1.00D+00  1.07D+00
 E= -803.155870279465     Delta-E=       -0.000130299289 Rises=F Damp=F
 DIIS: error= 4.32D-04 at cycle   3 NSaved=   3.
 NSaved= 3 IEnMin= 3 EnMin= -803.155870279465     IErMin= 3 ErrMin= 4.32D-04
 ErrMax= 4.32D-04  0.00D+00 EMaxC= 1.00D-01 BMatC= 1.31D-04 BMatP= 2.93D-04
 IDIUse=3 WtCom= 9.96D-01 WtEn= 4.32D-03
 Coeff-Com: -0.342D-02 0.391D+00 0.613D+00
 Coeff-En:   0.000D+00 0.270D+00 0.730D+00
 Coeff:     -0.341D-02 0.390D+00 0.613D+00
 Gap=     0.256 Goal=   None    Shift=    0.000
 RMSDP=3.81D-05 MaxDP=1.40D-03 DE=-1.30D-04 OVMax= 3.45D-03

 Cycle   4  Pass 1  IDiag  1:
 RMSU=  2.99D-05    CP:  1.00D+00  1.06D+00  7.58D-01
 E= -803.155963828146     Delta-E=       -0.000093548681 Rises=F Damp=F
 DIIS: error= 1.81D-04 at cycle   4 NSaved=   4.
 NSaved= 4 IEnMin= 4 EnMin= -803.155963828146     IErMin= 4 ErrMin= 1.81D-04
 ErrMax= 1.81D-04  0.00D+00 EMaxC= 1.00D-01 BMatC= 2.08D-05 BMatP= 1.31D-04
 IDIUse=3 WtCom= 9.98D-01 WtEn= 1.81D-03
 Coeff-Com: -0.983D-02 0.167D+00 0.352D+00 0.490D+00
 Coeff-En:   0.000D+00 0.000D+00 0.143D-01 0.986D+00
 Coeff:     -0.981D-02 0.167D+00 0.352D+00 0.491D+00
 Gap=     0.256 Goal=   None    Shift=    0.000
 RMSDP=1.55D-05 MaxDP=7.18D-04 DE=-9.35D-05 OVMax= 1.12D-03

 Cycle   5  Pass 1  IDiag  1:
 RMSU=  5.38D-06    CP:  1.00D+00  1.06D+00  7.11D-01  5.54D-01
 E= -803.155977411191     Delta-E=       -0.000013583045 Rises=F Damp=F
 DIIS: error= 1.99D-05 at cycle   5 NSaved=   5.
 NSaved= 5 IEnMin= 5 EnMin= -803.155977411191     IErMin= 5 ErrMin= 1.99D-05
 ErrMax= 1.99D-05  0.00D+00 EMaxC= 1.00D-01 BMatC= 2.02D-07 BMatP= 2.08D-05
 IDIUse=1 WtCom= 1.00D+00 WtEn= 0.00D+00
 Coeff-Com: -0.200D-02 0.133D-01 0.517D-01 0.111D+00 0.826D+00
 Coeff:     -0.200D-02 0.133D-01 0.517D-01 0.111D+00 0.826D+00
 Gap=     0.256 Goal=   None    Shift=    0.000
 RMSDP=1.98D-06 MaxDP=1.20D-04 DE=-1.36D-05 OVMax= 1.14D-04

 Cycle   6  Pass 1  IDiag  1:
 RMSU=  1.20D-06    CP:  1.00D+00  1.06D+00  7.24D-01  5.77D-01  9.87D-01
 E= -803.155977492908     Delta-E=       -0.000000081717 Rises=F Damp=F
 DIIS: error= 1.14D-05 at cycle   6 NSaved=   6.
 NSaved= 6 IEnMin= 6 EnMin= -803.155977492908     IErMin= 6 ErrMin= 1.14D-05
 ErrMax= 1.14D-05  0.00D+00 EMaxC= 1.00D-01 BMatC= 7.33D-08 BMatP= 2.02D-07
 IDIUse=1 WtCom= 1.00D+00 WtEn= 0.00D+00
 Coeff-Com: -0.316D-03-0.400D-02 0.271D-02 0.238D-01 0.435D+00 0.542D+00
 Coeff:     -0.316D-03-0.400D-02 0.271D-02 0.238D-01 0.435D+00 0.542D+00
 Gap=     0.256 Goal=   None    Shift=    0.000
 RMSDP=7.64D-07 MaxDP=3.67D-05 DE=-8.17D-08 OVMax= 4.62D-05

 Cycle   7  Pass 1  IDiag  1:
 RMSU=  3.97D-07    CP:  1.00D+00  1.06D+00  7.22D-01  5.79D-01  1.03D+00
                    CP:  5.92D-01
 E= -803.155977542277     Delta-E=       -0.000000049370 Rises=F Damp=F
 DIIS: error= 3.94D-06 at cycle   7 NSaved=   7.
 NSaved= 7 IEnMin= 7 EnMin= -803.155977542277     IErMin= 7 ErrMin= 3.94D-06
 ErrMax= 3.94D-06  0.00D+00 EMaxC= 1.00D-01 BMatC= 4.81D-09 BMatP= 7.33D-08
 IDIUse=1 WtCom= 1.00D+00 WtEn= 0.00D+00
 Coeff-Com:  0.314D-04-0.339D-02-0.374D-02 0.200D-02 0.124D+00 0.263D+00
 Coeff-Com:  0.618D+00
 Coeff:      0.314D-04-0.339D-02-0.374D-02 0.200D-02 0.124D+00 0.263D+00
 Coeff:      0.618D+00
 Gap=     0.256 Goal=   None    Shift=    0.000
 RMSDP=1.55D-07 MaxDP=6.60D-06 DE=-4.94D-08 OVMax= 1.26D-05

 Cycle   8  Pass 1  IDiag  1:
 RMSU=  1.08D-07    CP:  1.00D+00  1.06D+00  7.22D-01  5.80D-01  1.03D+00
                    CP:  6.43D-01  8.64D-01
 E= -803.155977546015     Delta-E=       -0.000000003738 Rises=F Damp=F
 DIIS: error= 5.53D-07 at cycle   8 NSaved=   8.
 NSaved= 8 IEnMin= 8 EnMin= -803.155977546015     IErMin= 8 ErrMin= 5.53D-07
 ErrMax= 5.53D-07  0.00D+00 EMaxC= 1.00D-01 BMatC= 1.80D-10 BMatP= 4.81D-09
 IDIUse=1 WtCom= 1.00D+00 WtEn= 0.00D+00
 Coeff-Com:  0.282D-04-0.102D-02-0.161D-02-0.486D-03 0.210D-01 0.658D-01
 Coeff-Com:  0.223D+00 0.693D+00
 Coeff:      0.282D-04-0.102D-02-0.161D-02-0.486D-03 0.210D-01 0.658D-01
 Coeff:      0.223D+00 0.693D+00
 Gap=     0.256 Goal=   None    Shift=    0.000
 RMSDP=4.96D-08 MaxDP=1.84D-06 DE=-3.74D-09 OVMax= 4.98D-06

 Cycle   9  Pass 1  IDiag  1:
 RMSU=  3.28D-08    CP:  1.00D+00  1.06D+00  7.22D-01  5.80D-01  1.03D+00
                    CP:  6.51D-01  9.13D-01  9.53D-01
 E= -803.155977546132     Delta-E=       -0.000000000117 Rises=F Damp=F
 DIIS: error= 2.51D-07 at cycle   9 NSaved=   9.
 NSaved= 9 IEnMin= 9 EnMin= -803.155977546132     IErMin= 9 ErrMin= 2.51D-07
 ErrMax= 2.51D-07  0.00D+00 EMaxC= 1.00D-01 BMatC= 4.43D-11 BMatP= 1.80D-10
 IDIUse=1 WtCom= 1.00D+00 WtEn= 0.00D+00
 Coeff-Com:  0.863D-05-0.909D-05-0.266D-03-0.535D-03-0.867D-02-0.677D-02
 Coeff-Com:  0.192D-01 0.353D+00 0.644D+00
 Coeff:      0.863D-05-0.909D-05-0.266D-03-0.535D-03-0.867D-02-0.677D-02
 Coeff:      0.192D-01 0.353D+00 0.644D+00
 Gap=     0.256 Goal=   None    Shift=    0.000
 RMSDP=1.82D-08 MaxDP=9.85D-07 DE=-1.17D-10 OVMax= 2.25D-06

 Cycle  10  Pass 1  IDiag  1:
 RMSU=  1.10D-08    CP:  1.00D+00  1.06D+00  7.22D-01  5.80D-01  1.04D+00
                    CP:  6.53D-01  9.17D-01  1.01D+00  7.27D-01
 E= -803.155977546165     Delta-E=       -0.000000000033 Rises=F Damp=F
 DIIS: error= 4.23D-08 at cycle  10 NSaved=  10.
 NSaved=10 IEnMin=10 EnMin= -803.155977546165     IErMin=10 ErrMin= 4.23D-08
 ErrMax= 4.23D-08  0.00D+00 EMaxC= 1.00D-01 BMatC= 1.08D-12 BMatP= 4.43D-11
 IDIUse=1 WtCom= 1.00D+00 WtEn= 0.00D+00
 Coeff-Com:  0.174D-05 0.521D-04 0.975D-05-0.162D-03-0.350D-02-0.559D-02
 Coeff-Com: -0.820D-02 0.605D-01 0.194D+00 0.763D+00
 Coeff:      0.174D-05 0.521D-04 0.975D-05-0.162D-03-0.350D-02-0.559D-02
 Coeff:     -0.820D-02 0.605D-01 0.194D+00 0.763D+00
 Gap=     0.256 Goal=   None    Shift=    0.000
 RMSDP=4.25D-09 MaxDP=1.79D-07 DE=-3.30D-11 OVMax= 5.22D-07

 Error on total polarization charges =  0.00584
 SCF Done:  E(RPBE1PBE) =  -803.155977546     A.U. after   10 cycles
            NFock= 10  Conv=0.42D-08     -V/T= 2.0035
 KE= 8.003708855482D+02 PE=-3.375471601040D+03 EE= 1.034434805900D+03
 Leave Link  502 at Fri May  3 18:42:41 2024, MaxMem=  8053063680 cpu:             336.8 elap:              21.2
 (Enter /share/apps/g16.b01_avx2/g16/l701.exe)
 ... and contract with generalized density number  0.
 Compute integral first derivatives.
 R6Disp: Adding Grimme-D3 dispersion energy 1st derivatives to the gradient.
   1 Symmetry operations used in ECPInt.
 ECPInt:  NShTT=    9316 NPrTT=   30648 LenC2=    8657 LenP2D=   21464.
 LDataN:  DoStor=T MaxTD1= 7 Len=  274
 D1PCM: PCM CHGder 1st derivatives, ID1Alg=3 FixD1E=F DoIter=F DoCFld=F I1PDM=0.
 GePol: Maximum number of non-zero 1st derivatives   =     201
 Leave Link  701 at Fri May  3 18:42:41 2024, MaxMem=  8053063680 cpu:               9.5 elap:               0.6
 (Enter /share/apps/g16.b01_avx2/g16/l702.exe)
 L702 exits ... SP integral derivatives will be done elsewhere.
 Leave Link  702 at Fri May  3 18:42:41 2024, MaxMem=  8053063680 cpu:               0.2 elap:               0.0
 (Enter /share/apps/g16.b01_avx2/g16/l703.exe)
 Integral derivatives from FoFJK, PRISM(SPDF).
 Compute integral first derivatives, UseDBF=F ICtDFT=           0.
 Calling FoFJK, ICntrl=      2127 FMM=F ISym2X=0 I1Cent= 0 IOpClX= 0 NMat=1 NMatS=1 NMatT=0.
 FoFJK:  IHMeth= 1 ICntrl=    2127 DoSepK=F KAlg= 0 I1Cent=           0 FoldK=F
 IRaf=         0 NMat=       1 IRICut=       1 DoRegI=T DoRafI=F ISym2E= 0 IDoP0=0 IntGTp=1.
 FoFCou: FMM=F IPFlag=           0 FMFlag=      100000 FMFlg1=         800
         NFxFlg=           0 DoJE=F BraDBF=F KetDBF=F FulRan=T
         wScrn=  0.000000 ICntrl=      2127 IOpCl=  0 I1Cent=           0 NGrid=           0
         NMat0=    1 NMatS0=      1 NMatT0=    0 NMatD0=    1 NMtDS0=    0 NMtDT0=    0
 Symmetry not used in FoFCou.
 Leave Link  703 at Fri May  3 18:42:53 2024, MaxMem=  8053063680 cpu:             190.4 elap:              11.9
 (Enter /share/apps/g16.b01_avx2/g16/l716.exe)
 Dipole        = 5.41399814D-01-1.07690764D-08 7.09191526D-01
 ***** Axes restored to original set *****
 -------------------------------------------------------------------
 Center     Atomic                   Forces (Hartrees/Bohr)
 Number     Number              X              Y              Z
 -------------------------------------------------------------------
      1        6           0.008763391    0.005434510    0.011675393
      2        6           0.002247463   -0.001398778   -0.002752588
      3        6          -0.003578517    0.001280341    0.000373288
      4        6           0.003552260   -0.002773290   -0.004616378
      5        6          -0.006191295    0.001707243    0.000611457
      6        6          -0.003255937   -0.001376465   -0.004888651
      7        8          -0.005492116   -0.004615181   -0.006280644
      8        1           0.002350560    0.001333719    0.003237863
      9        9          -0.001796397    0.000223675    0.000062025
     10        9           0.000781444   -0.000961779   -0.001321084
     11        9           0.002505856   -0.000548078    0.000004193
     12        9          -0.001169953    0.001142212    0.001976428
     13        9           0.001283241    0.000551871    0.001918699
 -------------------------------------------------------------------
 Cartesian Forces:  Max     0.011675393 RMS     0.003670750
 Leave Link  716 at Fri May  3 18:42:53 2024, MaxMem=  8053063680 cpu:               0.1 elap:               0.0
 (Enter /share/apps/g16.b01_avx2/g16/l103.exe)

[...]
 ! R11   R(5,11)                 1.3266         -DE/DX =    0.0                 !
 ! R12   R(6,13)                 1.3254         -DE/DX =    0.0                 !
 ! R13   R(7,8)                  0.9648         -DE/DX =    0.0                 !
 ! A1    A(2,1,3)              117.9491         -DE/DX =    0.0                 !
 ! A2    A(2,1,7)              120.9696         -DE/DX =    0.0                 !
 ! A3    A(3,1,7)              120.9696         -DE/DX =    0.0                 !
 ! A4    A(1,2,4)              121.2969         -DE/DX =    0.0                 !
 ! A5    A(1,2,9)              119.6608         -DE/DX =    0.0                 !
 ! A6    A(4,2,9)              119.0422         -DE/DX =    0.0                 !
 ! A7    A(1,3,5)              121.2969         -DE/DX =    0.0                 !
 ! A8    A(1,3,10)             119.6608         -DE/DX =    0.0                 !
 ! A9    A(5,3,10)             119.0422         -DE/DX =    0.0                 !
 ! A10   A(2,4,6)              119.8194         -DE/DX =    0.0                 !
 ! A11   A(2,4,12)             120.2907         -DE/DX =    0.0                 !
 ! A12   A(6,4,12)             119.8899         -DE/DX =    0.0                 !
 ! A13   A(3,5,6)              119.8194         -DE/DX =    0.0                 !
 ! A14   A(3,5,11)             120.2907         -DE/DX =    0.0                 !
 ! A15   A(6,5,11)             119.8899         -DE/DX =    0.0                 !
 ! A16   A(4,6,5)              119.8181         -DE/DX =    0.0                 !
 ! A17   A(4,6,13)             120.0909         -DE/DX =    0.0                 !
 ! A18   A(5,6,13)             120.0909         -DE/DX =    0.0                 !
 ! A19   A(1,7,8)              110.459          -DE/DX =   -0.0001              !
 ! D1    D(3,1,2,4)             -0.0499         -DE/DX =    0.0                 !
 ! D2    D(3,1,2,9)           -179.9929         -DE/DX =    0.0                 !
 ! D3    D(7,1,2,4)           -176.243          -DE/DX =    0.0                 !
 ! D4    D(7,1,2,9)              3.8141         -DE/DX =    0.0                 !
 ! D5    D(2,1,3,5)              0.0499         -DE/DX =    0.0                 !
 ! D6    D(2,1,3,10)           179.9929         -DE/DX =    0.0                 !
 ! D7    D(7,1,3,5)            176.243          -DE/DX =    0.0                 !
 ! D8    D(7,1,3,10)            -3.8141         -DE/DX =    0.0                 !
 ! D9    D(2,1,7,8)            -91.9611         -DE/DX =    0.0                 !
 ! D10   D(3,1,7,8)             91.9611         -DE/DX =    0.0                 !
 ! D11   D(1,2,4,6)              0.0297         -DE/DX =    0.0                 !
 ! D12   D(1,2,4,12)          -179.9321         -DE/DX =    0.0                 !
 ! D13   D(9,2,4,6)            179.9729         -DE/DX =    0.0                 !
 ! D14   D(9,2,4,12)             0.0112         -DE/DX =    0.0                 !
 ! D15   D(1,3,5,6)             -0.0297         -DE/DX =    0.0                 !
 ! D16   D(1,3,5,11)           179.9321         -DE/DX =    0.0                 !
 ! D17   D(10,3,5,6)          -179.9729         -DE/DX =    0.0                 !
 ! D18   D(10,3,5,11)           -0.0112         -DE/DX =    0.0                 !
 ! D19   D(2,4,6,5)             -0.0078         -DE/DX =    0.0                 !
 ! D20   D(2,4,6,13)          -180.0016         -DE/DX =    0.0                 !
 ! D21   D(12,4,6,5)           179.9541         -DE/DX =    0.0                 !
 ! D22   D(12,4,6,13)           -0.0397         -DE/DX =    0.0                 !
 ! D23   D(3,5,6,4)              0.0078         -DE/DX =    0.0                 !
 ! D24   D(3,5,6,13)           180.0016         -DE/DX =    0.0                 !
 ! D25   D(11,5,6,4)          -179.9541         -DE/DX =    0.0                 !
 ! D26   D(11,5,6,13)            0.0397         -DE/DX =    0.0                 !
 --------------------------------------------------------------------------------
 GradGradGradGradGradGradGradGradGradGradGradGradGradGradGradGradGradGrad

 Leave Link  103 at Fri May  3 18:49:22 2024, MaxMem=  8053063680 cpu:               0.1 elap:               0.0
 (Enter /share/apps/g16.b01_avx2/g16/l9999.exe)

 ----------------------------------------------------------------------

 Electric dipole moment (input orientation):
 (Debye = 10**-18 statcoulomb cm , SI units = C m)
                  (au)            (Debye)         (10**-30 SI)
   Tot        0.929769D+00      0.236324D+01      0.788291D+01
   x          0.200468D+00      0.509538D+00      0.169964D+01
   y         -0.470227D+00     -0.119520D+01     -0.398675D+01
   z          0.776640D+00      0.197402D+01      0.658463D+01

 Dipole polarizability, Alpha (input orientation).
 (esu units = cm**3 , SI units = C**2 m**2 J**-1)
 Alpha(0;0):
               (au)            (10**-24 esu)      (10**-40 SI)
   iso        0.915954D+02      0.135730D+02      0.151020D+02
   aniso      0.590667D+02      0.875279D+01      0.973879D+01
   xx         0.107516D+03      0.159323D+02      0.177270D+02
   yx        -0.876411D+01     -0.129871D+01     -0.144501D+01
   yy         0.638033D+02      0.945467D+01      0.105197D+02
   zx         0.754653D+01      0.111828D+01      0.124425D+01
   zy         0.211139D+02      0.312876D+01      0.348122D+01
   zz         0.103467D+03      0.153322D+02      0.170593D+02

 ----------------------------------------------------------------------

 Dipole orientation:
     6          0.50977940         -0.08280257          0.93418783
     6          1.95566060         -2.08936251          0.04888830
     6         -1.95293035          0.14504950          0.04888868
     6          0.98344881         -3.81500281         -1.66018557
     6         -2.94666727         -1.56828565         -1.66018514
     6         -1.47439377         -3.55365753         -2.51718324
     8          1.51823028          1.68125049          2.49730612
     1          1.25201558          1.21556907          4.23973482
     9          4.31439839         -2.36819796          0.85170284
     9         -3.38999144          2.03614651          0.85170365
     9         -5.30291261         -1.31626158         -2.47834546
     9          2.39614132         -5.71755570         -2.47834625
     9         -2.41544664         -5.19981325         -4.15344877

 Electric dipole moment (dipole orientation):
 (Debye = 10**-18 statcoulomb cm , SI units = C m)
                  (au)            (Debye)         (10**-30 SI)
   Tot        0.929769D+00      0.236324D+01      0.788291D+01
   x          0.000000D+00      0.000000D+00      0.000000D+00
   y          0.000000D+00      0.000000D+00      0.000000D+00
   z          0.929769D+00      0.236324D+01      0.788291D+01

 Dipole polarizability, Alpha (dipole orientation).
 (esu units = cm**3 , SI units = C**2 m**2 J**-1)
 Alpha(0;0):
               (au)            (10**-24 esu)      (10**-40 SI)
   iso        0.915954D+02      0.135730D+02      0.151020D+02
   aniso      0.590667D+02      0.875279D+01      0.973879D+01
   xx         0.102446D+03      0.151809D+02      0.168911D+02
   yx        -0.883643D+01     -0.130942D+01     -0.145693D+01
   yy         0.920401D+02      0.136389D+02      0.151754D+02
   zx         0.153941D+02      0.228117D+01      0.253815D+01
   zy         0.269285D+02      0.399039D+01      0.443990D+01
   zz         0.803002D+02      0.118993D+02      0.132397D+02

 ----------------------------------------------------------------------
 1\1\GINC-CORNBREAD-16-02\Freq\RPBE1PBE\def2TZVP\C6H1F5O1\HILLEL\03-May
 -2024\0\\#P Geom=AllCheck Guess=TCheck SCRF=Check GenChk RPBE1PBE/def2
 TZVP Freq\\pfp-OH_product2\\0,1\C,0.3669143056,-0.2716987855,0.3326091
 686\C,0.9485640295,-0.9031500295,-0.7606980447\C,-0.9971308345,-0.0084
 263657,0.283251005\C,0.1978689733,-1.2622234682,-1.8670561401\C,-1.758
 5410857,-0.3625724764,-0.8173579161\C,-1.1593836675,-0.9911185903,-1.8
 954959314\O,1.1208552997,0.1450702874,1.3805970546\H,1.1677115598,-0.5
 417091434,2.0565362001\F,2.2479690815,-1.1708353656,-0.7495819208\F,-1
 .5872728014,0.5927924562,1.3081904585\F,-3.0592544646,-0.1029124444,-0
 .8427171372\F,0.7733312101,-1.8653188196,-2.8990643413\F,-1.8832015757
 ,-1.332498525,-2.9519536952\\Version=ES64L-G16RevB.01\State=1-A\HF=-80
 3.1564704\RMSD=2.067e-09\RMSF=5.830e-05\ZeroPoint=0.0638818\Thermal=0.
 0733899\Dipole=0.2004677,-0.4702273,0.7766401\DipoleDeriv=0.4393545,0.
 1814937,0.6168787,0.1852474,0.0702234,0.3064274,0.6136616,0.2994314,0.
 9120156,1.5883782,-0.3172659,-0.0220578,-0.3011043,0.155426,0.0128755,
 0.0194149,-0.0125927,0.0829795,0.4055109,-0.3166491,-0.5191436,-0.3220
 261,0.4148924,0.5445314,-0.5698592,0.5498996,1.0063804,0.3394929,-0.29
 35363,-0.5167443,-0.3027228,0.3971938,0.5696549,-0.5354139,0.5594229,1
 .0343495,1.5864014,-0.3011965,0.0450384,-0.2820701,0.1275478,-0.007408
 2,0.0551889,-0.015702,0.057087,0.6062306,0.1979713,0.6661427,0.1954212
 ,0.1927671,0.3342366,0.6683283,0.3389894,1.1128655,-0.8161646,-0.06688
 18,-0.5159931,-0.0622491,-0.3234917,-0.2746301,-0.5199636,-0.2832644,-
 1.2348825,0.401521,-0.0546734,0.0218534,-0.0715878,0.2893512,-0.025789
 7,0.0363499,0.005735,0.4777704,-1.4892693,0.2885627,0.0016508,0.28315,
 -0.1782597,-0.0503268,-0.0130754,-0.0369395,-0.1875444,-0.4818815,0.29
 36994,0.4478923,0.2922988,-0.3978512,-0.5089897,0.4684578,-0.5096786,-
 0.9753407,-1.5150694,0.2749683,-0.0603216,0.2783713,-0.1598469,-0.0363
 94,-0.0422585,-0.0402155,-0.189529,-0.4486198,0.2849024,0.449709,0.279
 5965,-0.39049,-0.534711,0.433277,-0.5273427,-1.0253355,-0.6158847,-0.1
 713949,-0.6149049,-0.172325,-0.197462,-0.3294763,-0.6141077,-0.3277428
 ,-1.0708158\Polar=107.5163003,-8.764114,63.8032927,7.5465279,21.113941
 6,103.4666686\Quadrupole=-3.6047501,0.4259261,3.178824,-0.2080614,2.01
 30094,-4.6859775\PG=C01 [X(C6H1F5O1)]\NImag=1\\0.68439957,-0.08948959,
 0.26631420,0.05651964,0.20081252,0.62845860,-0.14699324,0.06688723,0.1
 0770456,0.70544581,0.02763347,-0.11491705,-0.10183241,-0.09554126,0.25
 117460,0.02185603,-0.08493573,-0.23468308,0.05209373,0.21969811,0.6214
 3226,-0.31216022,0.02749090,-0.05508246,-0.01614626,0.04250194,0.08328
 822,0.69862744,0.06783200,-0.08035971,-0.00779203,0.01737100,-0.004579
 44,0.00252524,-0.09617693,0.25320104,0.02983415,-0.02671528,-0.1040734
 2,0.03082136,0.01316818,0.03908785,0.04945735,0.22293380,0.62622419,0.
 07447294,-0.02818558,-0.02780499,-0.17442509,-0.00246258,-0.05573650,-
 0.06307641,-0.00044806,-0.03380591,0.71452824,-0.00423192,-0.00698580,
 -0.01436839,-0.04585834,-0.08630490,-0.07576778,-0.00001735,0.00642019
 ,-0.00701319,-0.10265650,0.25053180,0.02408165,-0.02605875,-0.04533534
 ,-0.14978708,-0.05656230,-0.24770725,-0.03276072,-0.00726615,-0.020332
 81,0.04620449,0.22647700,0.62871059,-0.02776513,-0.00545960,-0.0225665
 8,-0.00529754,0.00022201,-0.00600842,-0.17788603,-0.04624782,-0.151068
 02,-0.01363683,0.01633794,0.02897317,0.71480833,-0.02892474,0.01553792
 ,0.02169652,-0.00020625,-0.00601900,-0.03395013,-0.00230827,-0.0854649
 1,-0.05444236,0.04099798,-0.00291837,0.01300720,-0.10212423,0.24998304
 ,-0.07487191,0.03247638,0.03437901,-0.00705571,-0.03370174,-0.06567249
 ,-0.05748349,-0.07466133,-0.24508630,0.08191525,0.00189307,0.04038287,
 0.04587898,0.22627199,0.62897926,-0.05304562,0.02516658,0.02586986,-0.
 03081891,-0.03022016,-0.07849750,0.07694152,-0.00422503,0.02618406,-0.
 33094827,0.07526443,0.03918504,-0.15278624,0.03220984,0.02721011,0.715
 26962,0.02495911,-0.00378528,-0.01751528,-0.00474531,0.01580968,0.0336
 8608,-0.02961650,-0.00749419,-0.02769458,0.03117012,-0.07895180,-0.028
 03721,0.07629902,-0.11757982,-0.09070175,-0.10110832,0.25143802,0.0260
 4768,-0.01712860,-0.01527130,-0.02364698,0.02201503,0.03592558,-0.0287
 3792,-0.01617895,-0.04853097,-0.05502248,-0.00836741,-0.10186698,0.121
 42202,-0.11036199,-0.24140099,0.04845328,0.22665327,0.63181849,-0.1425
 1612,-0.05045884,-0.10282030,0.00301865,-0.00080536,-0.00220952,-0.027
 95099,-0.01360729,-0.04370546,-0.00448832,0.00231419,0.00295638,0.0002
 0642,0.00486779,0.00513463,0.00223778,-0.00039889,0.00189051,0.1692209
 7,-0.03202604,-0.09040749,-0.03718132,-0.01070108,0.00018878,-0.022263
 02,-0.00080934,0.00807587,-0.00084746,0.00334109,0.00463975,-0.0009602
 1,0.00326317,0.00250856,-0.00307839,-0.00048515,-0.00213192,0.00212872
 ,0.05353937,0.36530378,-0.11861827,-0.07153608,-0.22391348,-0.03174698
 ,-0.01804482,-0.04126024,-0.01665538,-0.01047479,-0.01817769,0.0042527
 2,-0.00019815,0.00458954,0.00433344,-0.00276371,0.00202599,0.00196445,
 0.00228950,0.00310594,0.17510103,-0.16988898,0.52260674,-0.01068280,0.
 01538434,-0.02423595,0.00093655,0.00113843,0.00207450,-0.00116617,-0.0
 0175485,-0.00349963,-0.00050889,0.00014742,-0.00068602,-0.00087325,-0.
 00101064,0.00106512,0.00038125,0.00017275,-0.00029974,-0.00576599,-0.0
 1131226,-0.01416303,0.01709507,-0.00356476,0.01005384,-0.01933479,-0.0
 0295537,-0.00048722,-0.00269908,0.00015257,-0.00014129,-0.00128457,0.0
 0045399,-0.00070612,0.00075515,0.00025124,-0.00000331,0.00014857,0.000
 10467,0.00022169,0.00040157,0.00975413,-0.28218543,0.26605803,-0.00361
 749,0.27331822,-0.00799549,0.01598223,-0.03335319,-0.00148967,-0.00020
 175,-0.00009011,0.00193839,0.00029303,0.00166668,-0.00002016,-0.001578
 03,-0.00045906,-0.00094500,-0.00044150,-0.00079752,-0.00024139,0.00052
 846,-0.00044019,-0.03221812,0.22679484,-0.24738874,0.03980806,-0.24322
 004,0.28004691,-0.04566436,0.00951251,-0.00349486,-0.34598745,0.061559
 26,-0.00619911,0.00477322,-0.00103031,-0.00216652,-0.05406065,0.014688
 22,0.00286050,0.00550854,-0.00143780,0.00056871,0.00564386,0.00009162,
 0.00071169,0.00826961,-0.00224949,0.00266673,0.00007091,0.00065880,-0.
 00000005,0.43102312,0.02774785,0.00213579,-0.00193260,0.06054229,-0.05
 562332,-0.01320745,-0.00215241,0.00330302,-0.00443703,-0.00448547,0.00
 811440,-0.00277241,-0.00151279,-0.00162182,0.00212635,0.00137444,0.002
 00416,-0.00466758,-0.00131209,-0.00378725,0.00321459,0.00030064,0.0000
 7609,0.00112067,-0.08147481,0.04707166,0.03611885,-0.00937276,0.005145
 90,-0.00756715,-0.01273385,-0.06754305,-0.00503081,-0.00394468,-0.0054
 3515,-0.03814903,0.00554156,0.00358228,0.00049268,0.00224037,0.0021109
 4,0.00363314,-0.00534507,-0.00538348,0.00339295,0.00330140,0.00307619,
 -0.00066022,0.00026097,-0.00013759,0.00834667,0.01642082,0.06062275,-0
 .02204420,0.02828857,0.04667570,-0.00231674,-0.00238356,-0.00814061,-0
 .12721411,0.06242429,0.09289126,0.00335305,-0.00156357,-0.00046946,0.0
 0641963,-0.00443276,-0.00997639,-0.00710857,0.00135890,-0.00230335,0.0
 0321476,-0.00121067,0.00094763,0.00053389,-0.00037542,0.00013521,-0.00
 363869,0.00201676,0.00243412,0.14063004,0.00934320,-0.00302972,-0.0209
 5629,-0.00110205,0.00494155,-0.00050412,0.06316202,-0.10348760,-0.1141
 5709,-0.00157397,-0.00108005,0.00316840,0.01492463,-0.00480772,-0.0222
 0594,0.00009209,0.00470772,0.00055330,-0.00208924,-0.00283868,0.005669
 26,0.00067777,0.00028036,0.00074189,0.00244811,-0.00037631,-0.00075015
 ,-0.08325556,0.11011595,0.00767053,-0.01219278,-0.01330875,-0.00541295
 ,-0.00129359,0.00001629,0.09449862,-0.11411025,-0.23845211,-0.00032025
 ,0.00321350,0.00372466,0.03087570,-0.03086228,-0.04397588,-0.00523851,
 0.00120097,0.00466539,0.00017098,0.00547282,0.00718247,0.00019971,0.00
 030621,-0.00080484,0.00332945,-0.00093044,-0.00012027,-0.12561359,0.15
 062576,0.28797154,0.00566201,0.00009397,0.00049533,0.00577067,-0.00136
 028,0.00076500,-0.05154599,0.01436850,0.00388508,0.00359374,-0.0011075
 3,-0.00273174,-0.35004772,0.06208829,-0.00792050,-0.04655229,0.0083411
 4,-0.00646049,-0.00425010,-0.00017106,-0.00401094,-0.00005363,-0.00057
 751,0.00075943,-0.01012054,0.00222797,-0.00013396,0.00855372,-0.004289
 62,-0.00285068,0.43335252,0.00127871,0.00216368,-0.00465809,-0.0015020
 4,-0.00170821,0.00201927,-0.00494240,0.00807781,-0.00262507,-0.0021354
 1,0.00282482,-0.00400396,0.06208425,-0.05414853,-0.01316618,0.02783561
 ,0.00227600,0.00001997,-0.00011983,0.00062547,0.00060369,-0.00004740,0
 .00004301,-0.00026060,0.00217712,0.00040808,-0.00029801,-0.00309777,-0
 .00247090,0.00504082,-0.08128395,0.04547618,0.00351194,-0.00538409,-0.
 00527393,0.00059754,0.00212747,0.00195476,-0.03748264,0.00604289,0.004
 44182,-0.00491506,-0.00351533,-0.00552413,-0.00788987,-0.01321971,-0.0
 6707955,0.03513855,-0.00862862,0.00536957,-0.00233721,0.00033628,-0.00
 058646,-0.00016207,-0.00015882,0.00025331,-0.00025592,-0.00027718,0.00
 026352,-0.00036136,0.00451653,0.00407946,0.01002571,0.01481073,0.05784
 998,-0.00690358,0.00126410,-0.00233816,0.00716628,-0.00462868,-0.01035
 859,0.00308315,-0.00160185,-0.00057081,-0.12700536,0.06366075,0.094822
 13,-0.00217540,-0.00218480,-0.00756439,-0.01962699,0.02802523,0.047538
 38,0.00145042,-0.00013591,0.00033622,-0.00005894,0.00007418,-0.0002687
 5,0.00859032,-0.00310716,-0.00033624,-0.00190157,0.00226632,0.00350229
 ,-0.00347606,0.00193530,0.00225788,0.13657471,0.00006109,0.00484264,0.
 00039847,0.01467777,-0.00462396,-0.02108818,-0.00153685,-0.00101281,0.
 00331531,0.06369147,-0.10277525,-0.11630533,-0.00118279,0.00410209,-0.
 00086939,0.00851571,-0.00358509,-0.02108856,-0.00052693,-0.00040892,-0
 .00258339,-0.00002192,-0.00026726,0.00019985,-0.00428537,-0.00247628,0
 .00451273,0.00232288,-0.00141456,-0.00407618,0.00243474,-0.00014651,-0
 .00081462,-0.08333673,0.11012077,-0.00533912,0.00115852,0.00461270,0.0
 3101295,-0.02974783,-0.04156867,-0.00033756,0.00335018,0.00394688,0.09
 476863,-0.11630153,-0.24149518,-0.00535890,-0.00130982,-0.00103225,0.0
 0595223,-0.01241193,-0.01569464,-0.00104629,-0.00168269,-0.00525258,0.
 00028078,-0.00071082,0.00056889,-0.00283725,0.00501159,0.00404824,0.00
 361937,-0.00410765,-0.00613280,0.00332302,-0.00103645,0.00001599,-0.12
 668027,0.15199954,0.28998320,0.00324074,-0.00049458,0.00107820,-0.0003
 5273,0.00434675,0.00707276,-0.00627916,0.00309636,0.00174308,-0.027798
 16,-0.01697772,-0.05264835,0.00352521,0.00246560,0.00309958,-0.1595871
 2,-0.03454889,-0.12959260,-0.00264709,-0.00104262,-0.00440762,0.000092
 00,-0.00035904,0.00053752,-0.00440789,-0.00016523,-0.00254101,0.001518
 78,-0.00060368,-0.00081131,0.00911366,-0.00218221,0.00187252,0.0042830
 2,-0.00081306,0.00264242,0.17929874,-0.00061837,-0.00156301,0.00266369
 ,0.00313341,0.00214850,-0.00351322,0.00425261,0.00346203,-0.00020066,0
 .00229292,0.00719134,-0.00144143,-0.01685503,0.00043187,-0.02453165,-0
 .03452469,-0.06292918,-0.07397876,-0.00115700,0.00041748,-0.00234515,-
 0.00005680,-0.00020257,0.00004094,-0.00065785,0.00077176,0.00016668,-0
 .00009209,-0.00054004,-0.00239455,-0.00076467,-0.00342091,0.00416446,-
 0.00223074,-0.00235485,0.00578889,0.04727831,0.05658760,0.00118430,0.0
 0289441,0.00261628,0.00447637,-0.00289052,0.00010813,0.00438839,-0.000
 71696,0.00472102,-0.01136672,-0.01001532,-0.01826920,-0.03813920,-0.01
 586459,-0.04283310,-0.12961333,-0.07402385,-0.25229641,-0.00430959,-0.
 00213197,-0.00600769,0.00027848,-0.00052238,0.00093544,-0.00353005,0.0
 0033067,-0.00023029,0.00016148,-0.00259389,-0.00484516,0.00485474,0.00
 355386,0.00423564,-0.00033968,0.00639976,0.00800022,0.17195480,0.09558
 076,0.30386511\\-0.00001764,0.00000993,-0.00004139,0.00019092,-0.00004
 360,-0.00002716,-0.00010994,0.00009476,0.00013425,0.00000873,-0.000015
 85,-0.00006950,-0.00006238,0.00001685,-0.00003135,-0.00000695,-0.00002
 879,0.00001173,-0.00000218,-0.00005590,0.00004384,0.00004244,0.0000533
 1,0.00003341,-0.00011029,0.00003175,0.00001645,0.00006808,-0.00005027,
 -0.00007926,0.00003357,-0.00001953,-0.00000784,-0.00002880,0.00000915,
 0.00002562,-0.00000555,-0.00000180,-0.00000880\\\@


 KNOWLEDGE IS EXPERIMENT'S DAUGHTER.
 -- LEONARDO DA VINCI, IN "PENSIERI" CA. 1492
 Job cpu time:       0 days  1 hours 19 minutes  1.5 seconds.
 Elapsed time:       0 days  0 hours  4 minutes 56.8 seconds.
 File lengths (MBytes):  RWF=    230 Int=      0 D2E=      0 Chk=     18 Scr=      1
 Normal termination of Gaussian 16 at Fri May  3 18:49:22 2024.
