 Entering Gaussian System, Link 0=g16
 Input=input.com
 Output=input.log
 Initial command:
 /share/apps/g16.b01_avx2/g16/l1.exe "/scratch/Gau-824498.inp" -scrdir="/scratch/"
 Entering Link 1 = /share/apps/g16.b01_avx2/g16/l1.exe PID=    824500.
  
 Copyright (c) 1988-2017, Gaussian, Inc.  All Rights Reserved.
  
 This is part of the Gaussian(R) 16 program.  It is based on
 the Gaussian(R) 09 system (copyright 2009, Gaussian, Inc.),
 the Gaussian(R) 03 system (copyright 2003, Gaussian, Inc.),
 the Gaussian(R) 98 system (copyright 1998, Gaussian, Inc.),
 the Gaussian(R) 94 system (copyright 1995, Gaussian, Inc.),
 the Gaussian 92(TM) system (copyright 1992, Gaussian, Inc.),
 the Gaussian 90(TM) system (copyright 1990, Gaussian, Inc.),
 the Gaussian 88(TM) system (copyright 1988, Gaussian, Inc.),
 the Gaussian 86(TM) system (copyright 1986, Carnegie Mellon
 University), and the Gaussian 82(TM) system (copyright 1983,
 Carnegie Mellon University). Gaussian is a federally registered
 trademark of Gaussian, Inc.
  
 This software contains proprietary and confidential information,
 including trade secrets, belonging to Gaussian, Inc.
  
 This software is provided under written license and may be
 used, copied, transmitted, or stored only in accord with that
 written license.
  
 The following legend is applicable only to US Government
 contracts under FAR:
  
                    RESTRICTED RIGHTS LEGEND
  
 Use, reproduction and disclosure by the US Government is
 subject to restrictions as set forth in subparagraphs (a)
 and (c) of the Commercial Computer Software - Restricted
 Rights clause in FAR 52.227-19.
  
 Gaussian, Inc.
 340 Quinnipiac St., Bldg. 40, Wallingford CT 06492
  
  
 ---------------------------------------------------------------
 Warning -- This program may not be used in any manner that
 competes with the business of Gaussian, Inc. or will provide
 assistance to any competitor of Gaussian, Inc.  The licensee
 of this program is prohibited from giving any competitor of
 Gaussian, Inc. access to this program.  By using this program,
 the user acknowledges that Gaussian, Inc. is engaged in the
 business of creating and licensing software in the field of
 computational chemistry and represents and warrants to the
 licensee that it is not a competitor of Gaussian, Inc. and that
 it will not use this program in any manner prohibited above.
 ---------------------------------------------------------------
  

 Cite this work as:
 Gaussian 16, Revision B.01,
 M. J. Frisch, G. W. Trucks, H. B. Schlegel, G. E. Scuseria, 
 M. A. Robb, J. R. Cheeseman, G. Scalmani, V. Barone, 
 G. A. Petersson, H. Nakatsuji, X. Li, M. Caricato, A. V. Marenich, 
 J. Bloino, B. G. Janesko, R. Gomperts, B. Mennucci, H. P. Hratchian, 
 J. V. Ortiz, A. F. Izmaylov, J. L. Sonnenberg, D. Williams-Young, 
 F. Ding, F. Lipparini, F. Egidi, J. Goings, B. Peng, A. Petrone, 
 T. Henderson, D. Ranasinghe, V. G. Zakrzewski, J. Gao, N. Rega, 
 G. Zheng, W. Liang, M. Hada, M. Ehara, K. Toyota, R. Fukuda, 
 J. Hasegawa, M. Ishida, T. Nakajima, Y. Honda, O. Kitao, H. Nakai, 
 T. Vreven, K. Throssell, J. A. Montgomery, Jr., J. E. Peralta, 
 F. Ogliaro, M. J. Bearpark, J. J. Heyd, E. N. Brothers, K. N. Kudin, 
 V. N. Staroverov, T. A. Keith, R. Kobayashi, J. Normand, 
 K. Raghavachari, A. P. Rendell, J. C. Burant, S. S. Iyengar, 
 J. Tomasi, M. Cossi, J. M. Millam, M. Klene, C. Adamo, R. Cammi, 
 J. W. Ochterski, R. L. Martin, K. Morokuma, O. Farkas, 
 J. B. Foresman, and D. J. Fox, Gaussian, Inc., Wallingford CT, 2016.
 
 ******************************************
 Gaussian 16:  ES64L-G16RevB.01 20-Dec-2017
                 7-Jul-2024 
 ******************************************
 %nproc=16
 Will use up to   16 processors via shared memory.
 %mem=60GB
 ----------------------------------------------------------------------
 #P PBE1PBE/def2TZVP opt freq EmpiricalDispersion=GD3 Int=(grid=99590) 
 scrf=(iefpcm, solvent=water)
 ----------------------------------------------------------------------
 1/18=20,19=15,26=6,38=1/1,3;
 2/9=110,12=2,17=6,18=5,40=1/2;
 3/5=44,7=101,11=2,25=1,30=1,70=2201,71=1,72=1,74=-13,75=99590,124=31/1,2,3;
 4//1;
 5/5=2,38=5,53=1/2;
 6/7=2,8=2,9=2,10=2,28=1/1;
 7//1,2,3,16;
 1/18=20,19=15,26=6/3(2);
 2/9=110/2;
 99//99;
 2/9=110/2;
 3/5=44,7=101,11=2,25=1,30=1,70=2205,71=1,72=1,74=-13,75=99590,124=31/1,2,3;
 4/5=5,16=3,69=1/1;
 5/5=2,38=5,53=1/2;
 7//1,2,3,16;
 1/18=20,19=15,26=6/3(-5);
 2/9=110/2;
 6/7=2,8=2,9=2,10=2,19=2,28=1/1;
 99/9=1/99;
 Leave Link    1 at Sun Jul  7 08:46:27 2024, MaxMem=  8053063680 cpu:               0.4 elap:               0.0
 (Enter /share/apps/g16.b01_avx2/g16/l101.exe)
 ------------------
 tfp-pyridine_inter
 ------------------
 Symbolic Z-matrix:
 Charge =  0 Multiplicity = 1
 H                    -3.51126  -1.13004  -0.70901 
 O                    -3.49284   0.82378  -0.46285 
 C                    -2.40053   0.65862   0.08665 
 N                    -3.15092  -1.23458   0.23716 
 H                    -2.45383  -1.9751    0.20656 
 C                    -4.23847  -1.54856   1.17125 
 H                    -3.81948  -1.76677   2.15104 
 H                    -4.88881  -0.67823   1.23039 
 H                    -4.79945  -2.41129   0.81612 
 C                    -1.84273   0.60384   1.49462 
 H                    -1.21336   1.481     1.64734 
 H                    -2.67715   0.66486   2.19291 
 H                    -1.2611   -0.2928    1.71227 
 C                    -2.09776  -0.66948  -4.30496 
 C                    -1.89738  -0.71747  -2.91325 
 C                    -1.68835   0.48081  -2.22807 
 C                    -1.68625   1.67595  -2.94945 
 C                    -1.89553   1.62146  -4.33969 
 N                    -2.09892   0.47438  -5.01668 
 O                    -1.47878   0.48346  -0.81351 
 F                    -1.90884  -1.90024  -2.26254 
 F                    -1.48864   2.8617   -2.33509 
 F                    -1.90281   2.74889  -5.08222 
 F                    -2.3042   -1.80024  -5.01296 
 
 Add virtual bond connecting atoms O2         and H1         Dist= 3.72D+00.
 Add virtual bond connecting atoms C3         and N4         Dist= 3.86D+00.
 ITRead=  0  0  0  0  0  0  0  0  0  0  0  0  0  0  0  0  0  0  0  0
 ITRead=  0  0  0  0
 MicOpt= -1 -1 -1 -1 -1 -1 -1 -1 -1 -1 -1 -1 -1 -1 -1 -1 -1 -1 -1 -1
 MicOpt= -1 -1 -1 -1
 NAtoms=     24 NQM=       24 NQMF=       0 NMMI=      0 NMMIF=      0
                NMic=       0 NMicF=      0.
                    Isotopes and Nuclear Properties:
 (Nuclear quadrupole moments (NQMom) in fm**2, nuclear magnetic moments (NMagM)
  in nuclear magnetons)

  Atom         1           2           3           4           5           6           7           8           9          10
 IAtWgt=           1          16          12          14           1          12           1           1           1          12
 AtmWgt=   1.0078250  15.9949146  12.0000000  14.0030740   1.0078250  12.0000000   1.0078250   1.0078250   1.0078250  12.0000000
 NucSpn=           1           0           0           2           1           0           1           1           1           0
 AtZEff=  -0.0000000  -0.0000000  -0.0000000  -0.0000000  -0.0000000  -0.0000000  -0.0000000  -0.0000000  -0.0000000  -0.0000000
 NQMom=    0.0000000   0.0000000   0.0000000   2.0440000   0.0000000   0.0000000   0.0000000   0.0000000   0.0000000   0.0000000
 NMagM=    2.7928460   0.0000000   0.0000000   0.4037610   2.7928460   0.0000000   2.7928460   2.7928460   2.7928460   0.0000000
 AtZNuc=   1.0000000   8.0000000   6.0000000   7.0000000   1.0000000   6.0000000   1.0000000   1.0000000   1.0000000   6.0000000

  Atom        11          12          13          14          15          16          17          18          19          20
 IAtWgt=           1           1           1          12          12          12          12          12          14          16
 AtmWgt=   1.0078250   1.0078250   1.0078250  12.0000000  12.0000000  12.0000000  12.0000000  12.0000000  14.0030740  15.9949146
 NucSpn=           1           1           1           0           0           0           0           0           2           0
 AtZEff=  -0.0000000  -0.0000000  -0.0000000  -0.0000000  -0.0000000  -0.0000000  -0.0000000  -0.0000000  -0.0000000  -0.0000000
 NQMom=    0.0000000   0.0000000   0.0000000   0.0000000   0.0000000   0.0000000   0.0000000   0.0000000   2.0440000   0.0000000
 NMagM=    2.7928460   2.7928460   2.7928460   0.0000000   0.0000000   0.0000000   0.0000000   0.0000000   0.4037610   0.0000000
 AtZNuc=   1.0000000   1.0000000   1.0000000   6.0000000   6.0000000   6.0000000   6.0000000   6.0000000   7.0000000   8.0000000

  Atom        21          22          23          24
 IAtWgt=          19          19          19          19
 AtmWgt=  18.9984032  18.9984032  18.9984032  18.9984032
 NucSpn=           1           1           1           1
 AtZEff=  -0.0000000  -0.0000000  -0.0000000  -0.0000000
 NQMom=    0.0000000   0.0000000   0.0000000   0.0000000
 NMagM=    2.6288670   2.6288670   2.6288670   2.6288670
 AtZNuc=   9.0000000   9.0000000   9.0000000   9.0000000
 Leave Link  101 at Sun Jul  7 08:46:27 2024, MaxMem=  8053063680 cpu:               5.2 elap:               0.3
 (Enter /share/apps/g16.b01_avx2/g16/l103.exe)

 GradGradGradGradGradGradGradGradGradGradGradGradGradGradGradGradGradGrad
 Berny optimization.
 Initialization pass.
                           ----------------------------
                           !    Initial Parameters    !
                           ! (Angstroms and Degrees)  !
 --------------------------                            --------------------------
 ! Name  Definition              Value          Derivative Info.                !
 --------------------------------------------------------------------------------
 ! R1    R(1,2)                  1.9694         estimate D2E/DX2                !
 ! R2    R(1,4)                  1.0178         estimate D2E/DX2                !
 ! R3    R(2,3)                  1.2338         estimate D2E/DX2                !
 ! R4    R(3,4)                  2.042          estimate D2E/DX2                !
 ! R5    R(3,10)                 1.5154         estimate D2E/DX2                !
 ! R6    R(3,20)                 1.3002         estimate D2E/DX2                !
 ! R7    R(4,5)                  1.0175         estimate D2E/DX2                !
 ! R8    R(4,6)                  1.4676         estimate D2E/DX2                !
 ! R9    R(6,7)                  1.0877         estimate D2E/DX2                !
 ! R10   R(6,8)                  1.0881         estimate D2E/DX2                !
 ! R11   R(6,9)                  1.0886         estimate D2E/DX2                !
 ! R12   R(10,11)                1.0903         estimate D2E/DX2                !
 ! R13   R(10,12)                1.0898         estimate D2E/DX2                !
 ! R14   R(10,13)                1.0907         estimate D2E/DX2                !
 ! R15   R(14,15)                1.4069         estimate D2E/DX2                !
 ! R16   R(14,19)                1.3472         estimate D2E/DX2                !
 ! R17   R(14,24)                1.35           estimate D2E/DX2                !
 ! R18   R(15,16)                1.3961         estimate D2E/DX2                !
 ! R19   R(15,21)                1.35           estimate D2E/DX2                !
 ! R20   R(16,17)                1.396          estimate D2E/DX2                !
 ! R21   R(16,20)                1.43           estimate D2E/DX2                !
 ! R22   R(17,18)                1.407          estimate D2E/DX2                !
 ! R23   R(17,22)                1.35           estimate D2E/DX2                !
 ! R24   R(18,19)                1.3474         estimate D2E/DX2                !
 ! R25   R(18,23)                1.35           estimate D2E/DX2                !
 ! A1    A(2,1,4)               88.9911         estimate D2E/DX2                !
 ! A2    A(1,2,3)               86.0517         estimate D2E/DX2                !
 ! A3    A(2,3,4)               80.3059         estimate D2E/DX2                !
 ! A4    A(2,3,10)             138.1143         estimate D2E/DX2                !
 ! A5    A(2,3,20)             109.7125         estimate D2E/DX2                !
 ! A6    A(4,3,10)              91.9068         estimate D2E/DX2                !
 ! A7    A(4,3,20)             100.7569         estimate D2E/DX2                !
 ! A8    A(10,3,20)            112.1732         estimate D2E/DX2                !
 ! A9    A(1,4,3)               88.0721         estimate D2E/DX2                !
 ! A10   A(1,4,5)              106.8186         estimate D2E/DX2                !
 ! A11   A(1,4,6)              110.566          estimate D2E/DX2                !
 ! A12   A(3,4,5)              114.8836         estimate D2E/DX2                !
 ! A13   A(3,4,6)              121.169          estimate D2E/DX2                !
 ! A14   A(5,4,6)              111.7855         estimate D2E/DX2                !
 ! A15   A(4,6,7)              109.3169         estimate D2E/DX2                !
 ! A16   A(4,6,8)              107.8416         estimate D2E/DX2                !
 ! A17   A(4,6,9)              110.1071         estimate D2E/DX2                !
 ! A18   A(7,6,8)              109.9826         estimate D2E/DX2                !
 ! A19   A(7,6,9)              109.4729         estimate D2E/DX2                !
 ! A20   A(8,6,9)              110.0976         estimate D2E/DX2                !
 ! A21   A(3,10,11)            108.2719         estimate D2E/DX2                !
 ! A22   A(3,10,12)            108.1479         estimate D2E/DX2                !
 ! A23   A(3,10,13)            114.2925         estimate D2E/DX2                !
 ! A24   A(11,10,12)           107.8889         estimate D2E/DX2                !
 ! A25   A(11,10,13)           109.0013         estimate D2E/DX2                !
 ! A26   A(12,10,13)           109.0553         estimate D2E/DX2                !
 ! A27   A(15,14,19)           123.4828         estimate D2E/DX2                !
 ! A28   A(15,14,24)           120.7972         estimate D2E/DX2                !
 ! A29   A(19,14,24)           115.72           estimate D2E/DX2                !
 ! A30   A(14,15,16)           118.5252         estimate D2E/DX2                !
 ! A31   A(14,15,21)           120.3635         estimate D2E/DX2                !
 ! A32   A(16,15,21)           121.1114         estimate D2E/DX2                !
 ! A33   A(15,16,17)           118.7792         estimate D2E/DX2                !
 ! A34   A(15,16,20)           120.5988         estimate D2E/DX2                !
 ! A35   A(17,16,20)           120.6219         estimate D2E/DX2                !
 ! A36   A(16,17,18)           118.5054         estimate D2E/DX2                !
 ! A37   A(16,17,22)           121.1328         estimate D2E/DX2                !
 ! A38   A(18,17,22)           120.3618         estimate D2E/DX2                !
 ! A39   A(17,18,19)           123.4969         estimate D2E/DX2                !
 ! A40   A(17,18,23)           120.7935         estimate D2E/DX2                !
 ! A41   A(19,18,23)           115.7097         estimate D2E/DX2                !
 ! A42   A(14,19,18)           117.2105         estimate D2E/DX2                !
 ! A43   A(3,20,16)            125.5342         estimate D2E/DX2                !
 ! D1    D(4,1,2,3)             41.9051         estimate D2E/DX2                !
 ! D2    D(2,1,4,3)            -23.7551         estimate D2E/DX2                !
 ! D3    D(2,1,4,5)           -139.2007         estimate D2E/DX2                !
 ! D4    D(2,1,4,6)             98.9612         estimate D2E/DX2                !
 ! D5    D(1,2,3,4)            -19.7357         estimate D2E/DX2                !
 ! D6    D(1,2,3,10)          -101.6921         estimate D2E/DX2                !
 ! D7    D(1,2,3,20)            78.3079         estimate D2E/DX2                !
 ! D8    D(2,3,4,1)             40.7056         estimate D2E/DX2                !
 ! D9    D(2,3,4,5)            148.3748         estimate D2E/DX2                !
 ! D10   D(2,3,4,6)            -72.2753         estimate D2E/DX2                !
 ! D11   D(10,3,4,1)           179.2954         estimate D2E/DX2                !
 ! D12   D(10,3,4,5)           -73.0354         estimate D2E/DX2                !
 ! D13   D(10,3,4,6)            66.3145         estimate D2E/DX2                !
 ! D14   D(20,3,4,1)           -67.7068         estimate D2E/DX2                !
 ! D15   D(20,3,4,5)            39.9624         estimate D2E/DX2                !
 ! D16   D(20,3,4,6)           179.3123         estimate D2E/DX2                !
 ! D17   D(2,3,10,11)         -111.4931         estimate D2E/DX2                !
 ! D18   D(2,3,10,12)            5.1634         estimate D2E/DX2                !
 ! D19   D(2,3,10,13)          126.8243         estimate D2E/DX2                !
 ! D20   D(4,3,10,11)          170.9357         estimate D2E/DX2                !
 ! D21   D(4,3,10,12)          -72.4078         estimate D2E/DX2                !
 ! D22   D(4,3,10,13)           49.2531         estimate D2E/DX2                !
 ! D23   D(20,3,10,11)          68.5069         estimate D2E/DX2                !
 ! D24   D(20,3,10,12)        -174.8366         estimate D2E/DX2                !
 ! D25   D(20,3,10,13)         -53.1757         estimate D2E/DX2                !
 ! D26   D(2,3,20,16)            0.0            estimate D2E/DX2                !
 ! D27   D(4,3,20,16)           83.4541         estimate D2E/DX2                !
 ! D28   D(10,3,20,16)         180.0            estimate D2E/DX2                !
 ! D29   D(1,4,6,7)            173.6294         estimate D2E/DX2                !
 ! D30   D(1,4,6,8)            -66.817          estimate D2E/DX2                !
 ! D31   D(1,4,6,9)             53.3314         estimate D2E/DX2                !
 ! D32   D(3,4,6,7)            -85.7119         estimate D2E/DX2                !
 ! D33   D(3,4,6,8)             33.8417         estimate D2E/DX2                !
 ! D34   D(3,4,6,9)            153.9901         estimate D2E/DX2                !
 ! D35   D(5,4,6,7)             54.7632         estimate D2E/DX2                !
 ! D36   D(5,4,6,8)            174.3168         estimate D2E/DX2                !
 ! D37   D(5,4,6,9)            -65.5348         estimate D2E/DX2                !
 ! D38   D(19,14,15,16)          0.01           estimate D2E/DX2                !
 ! D39   D(19,14,15,21)        179.9941         estimate D2E/DX2                !
 ! D40   D(24,14,15,16)       -179.9926         estimate D2E/DX2                !
 ! D41   D(24,14,15,21)         -0.0086         estimate D2E/DX2                !
 ! D42   D(15,14,19,18)         -0.001          estimate D2E/DX2                !
 ! D43   D(24,14,19,18)       -179.9985         estimate D2E/DX2                !
 ! D44   D(14,15,16,17)         -0.0113         estimate D2E/DX2                !
 ! D45   D(14,15,16,20)       -179.9425         estimate D2E/DX2                !
 ! D46   D(21,15,16,17)       -179.9952         estimate D2E/DX2                !
 ! D47   D(21,15,16,20)          0.0736         estimate D2E/DX2                !
 ! D48   D(15,16,17,18)          0.0043         estimate D2E/DX2                !
 ! D49   D(15,16,17,22)       -179.9944         estimate D2E/DX2                !
 ! D50   D(20,16,17,18)        179.9354         estimate D2E/DX2                !
 ! D51   D(20,16,17,22)         -0.0632         estimate D2E/DX2                !
 ! D52   D(15,16,20,3)         -94.3736         estimate D2E/DX2                !
 ! D53   D(17,16,20,3)          85.6965         estimate D2E/DX2                !
 ! D54   D(16,17,18,19)          0.0051         estimate D2E/DX2                !
 ! D55   D(16,17,18,23)        179.9933         estimate D2E/DX2                !
 ! D56   D(22,17,18,19)       -179.9962         estimate D2E/DX2                !
 ! D57   D(22,17,18,23)         -0.008          estimate D2E/DX2                !
 ! D58   D(17,18,19,14)         -0.0067         estimate D2E/DX2                !
 ! D59   D(23,18,19,14)       -179.9955         estimate D2E/DX2                !
 --------------------------------------------------------------------------------
 Trust Radius=3.00D-01 FncErr=5.00D-06 GrdErr=5.00D-06 EigMax=2.50D+02 EigMin=1.00D-04
 Number of steps in this run=    137 maximum allowed number of steps=    144.
 GradGradGradGradGradGradGradGradGradGradGradGradGradGradGradGradGradGrad

 Leave Link  103 at Sun Jul  7 08:46:27 2024, MaxMem=  8053063680 cpu:               0.1 elap:               0.0
 (Enter /share/apps/g16.b01_avx2/g16/l202.exe)
                          Input orientation:                          
 ---------------------------------------------------------------------
 Center     Atomic      Atomic             Coordinates (Angstroms)
 Number     Number       Type             X           Y           Z
 ---------------------------------------------------------------------
      1          1           0       -3.511259   -1.130041   -0.709012
      2          8           0       -3.492836    0.823780   -0.462854
      3          6           0       -2.400532    0.658615    0.086650
      4          7           0       -3.150920   -1.234579    0.237156
      5          1           0       -2.453829   -1.975098    0.206558
      6          6           0       -4.238466   -1.548560    1.171253
      7          1           0       -3.819477   -1.766770    2.151044
      8          1           0       -4.888812   -0.678235    1.230394
      9          1           0       -4.799452   -2.411294    0.816118
     10          6           0       -1.842729    0.603843    1.494620
     11          1           0       -1.213364    1.481003    1.647344
     12          1           0       -2.677154    0.664864    2.192911
     13          1           0       -1.261101   -0.292797    1.712266
     14          6           0       -2.097760   -0.669480   -4.304956
     15          6           0       -1.897380   -0.717469   -2.913248
     16          6           0       -1.688346    0.480811   -2.228067
     17          6           0       -1.686252    1.675947   -2.949451
     18          6           0       -1.895530    1.621462   -4.339695
     19          7           0       -2.098922    0.474375   -5.016683
     20          8           0       -1.478777    0.483462   -0.813510
     21          9           0       -1.908839   -1.900241   -2.262541
     22          9           0       -1.488641    2.861702   -2.335093
     23          9           0       -1.902806    2.748893   -5.082222
     24          9           0       -2.304202   -1.800239   -5.012958
 ---------------------------------------------------------------------
                    Distance matrix (angstroms):
                    1          2          3          4          5
     1  H    0.000000
     2  O    1.969352   0.000000
     3  C    2.250795   1.233840   0.000000
     4  N    1.017844   2.200854   2.042038   0.000000
     5  H    1.634181   3.059634   2.636979   1.017467   0.000000
     6  C    2.058977   2.975612   3.070177   1.467609   2.073041
     7  H    2.946242   3.694605   3.486778   2.095987   2.385252
     8  H    2.421379   2.659302   3.047434   2.077573   2.942658
     9  H    2.372145   3.716008   3.963746   2.106540   2.462474
    10  C    3.262873   2.569616   1.515429   2.583094   2.946775
    11  H    4.201224   3.175039   2.126372   3.621760   3.944522
    12  H    3.512630   2.782746   2.124357   2.767185   3.311325
    13  H    3.409806   3.310367   2.201390   2.575717   2.553408
    14  C    3.891132   4.351759   4.598011   4.696729   4.710114
    15  C    2.762875   3.305353   3.338586   3.429841   3.409465
    16  C    2.867993   2.547506   2.428320   3.340511   3.541870
    17  C    4.027876   3.189530   3.280712   4.557508   4.886685
    18  C    4.833550   4.268206   4.557919   5.539002   5.823688
    19  N    4.808834   4.775190   5.115557   5.624060   5.779976
    20  O    2.597171   2.072488   1.300230   2.617562   2.834745
    21  F    2.361020   3.628803   3.508305   2.869558   2.529638
    22  F    4.761212   3.416900   3.398526   5.114603   5.548532
    23  F    6.062855   5.250983   5.597699   6.761777   7.112728
    24  F    4.519967   5.385329   5.662264   5.347953   5.224586
                    6          7          8          9         10
     6  C    0.000000
     7  H    1.087730   0.000000
     8  H    1.088078   1.782128   0.000000
     9  H    1.088639   1.777017   1.784125   0.000000
    10  C    3.236813   3.155667   3.315443   4.277105   0.000000
    11  H    4.307686   4.194469   4.283115   5.357326   1.090337
    12  H    2.894948   2.686912   2.760758   3.982769   1.089770
    13  H    3.276330   2.985031   3.679817   4.220312   1.090699
    14  C    5.945105   6.771137   6.199205   6.046358   5.943187
    15  C    4.780643   5.517476   5.110770   5.019884   4.601973
    16  C    4.709229   5.363763   4.852558   5.225927   3.727918
    17  C    5.821636   6.512910   5.767987   6.370013   4.574238
    18  C    6.775613   7.570428   6.728613   7.160886   5.922632
    19  N    6.852771   7.704503   6.938153   7.045674   6.517627
    20  O    3.960339   4.396704   4.141911   4.697040   2.339747
    21  F    4.164347   4.811246   4.751225   4.253817   4.515647
    22  F    6.269483   6.854267   6.066714   6.978258   4.459822
    23  F    7.939103   8.739850   7.778853   8.355148   6.918070
    24  F    6.484534   7.322575   6.849711   6.370069   6.952779
                   11         12         13         14         15
    11  H    0.000000
    12  H    1.762501   0.000000
    13  H    1.775630   1.775765   0.000000
    14  C    6.390353   6.658712   6.086777   0.000000
    15  C    5.108832   5.347125   4.688345   1.406878   0.000000
    16  C    4.030485   4.533946   4.038222   2.409202   1.396081
    17  C    4.625165   5.333672   5.078220   2.740030   2.402983
    18  C    6.027414   6.648380   6.379116   2.300113   2.739590
    19  N    6.797557   7.235253   6.824168   1.347205   2.426016
    20  O    2.668583   3.241540   2.651322   3.728621   2.454866
    21  F    5.215717   5.198185   4.336189   2.392054   1.350000
    22  F    4.223969   5.171217   5.136513   4.089087   3.648534
    23  F    6.882582   7.607256   7.471863   3.511043   4.089027
    24  F    7.504405   7.624983   6.970587   1.350000   2.397222
                   16         17         18         19         20
    16  C    0.000000
    17  C    1.395977   0.000000
    18  C    2.408938   1.406963   0.000000
    19  N    2.818686   2.426422   1.347401   0.000000
    20  O    1.430000   2.455058   3.728634   4.248686   0.000000
    21  F    2.391488   3.648358   4.088659   3.641460   2.822532
    22  F    2.391649   1.350000   2.392109   3.641799   2.823356
    23  F    3.651902   2.397253   1.350000   2.283897   4.851173
    24  F    3.652133   4.089473   3.511172   2.283861   4.850977
                   21         22         23         24
    21  F    0.000000
    22  F    4.780997   0.000000
    23  F    5.437378   2.780463   0.000000
    24  F    2.780486   5.437811   4.567331   0.000000
 Stoichiometry    C8H8F4N2O2
 Framework group  C1[X(C8H8F4N2O2)]
 Deg. of freedom    66
 Full point group                 C1      NOp   1
 Largest Abelian subgroup         C1      NOp   1
 Largest concise Abelian subgroup C1      NOp   1
                         Standard orientation:                         
 ---------------------------------------------------------------------
 Center     Atomic      Atomic             Coordinates (Angstroms)
 Number     Number       Type             X           Y           Z
 ---------------------------------------------------------------------
      1          1           0       -1.866793    1.109817    0.719360
      2          8           0       -1.589052   -0.801294    1.105186
      3          6           0       -1.942665   -1.000373   -0.060012
      4          7           0       -2.720414    0.866706    0.221129
      5          1           0       -2.750070    1.448236   -0.613247
      6          6           0       -3.894507    1.079734    1.075531
      7          1           0       -4.798219    0.923187    0.490761
      8          1           0       -3.849210    0.359614    1.889957
      9          1           0       -3.889859    2.093610    1.471975
     10          6           0       -3.182615   -1.460648   -0.799738
     11          1           0       -2.978829   -2.440762   -1.231807
     12          1           0       -3.987651   -1.575461   -0.074249
     13          1           0       -3.509896   -0.784888   -1.590852
     14          6           0        1.927279    1.482617   -0.059707
     15          6           0        0.635972    1.083895   -0.450671
     16          6           0        0.338578   -0.279896   -0.476640
     17          6           0        1.332022   -1.191407   -0.114746
     18          6           0        2.593636   -0.695266    0.261710
     19          7           0        2.897647    0.617027    0.292574
     20          8           0       -0.959449   -0.734524   -0.868225
     21          9           0       -0.289162    2.006184   -0.791274
     22          9           0        1.096222   -2.520629   -0.122981
     23          9           0        3.587721   -1.535307    0.620356
     24          9           0        2.264297    2.789210   -0.018087
 ---------------------------------------------------------------------
 Rotational constants (GHZ):           0.7775592           0.3791476           0.2807730
 Leave Link  202 at Sun Jul  7 08:46:27 2024, MaxMem=  8053063680 cpu:               0.0 elap:               0.0
 (Enter /share/apps/g16.b01_avx2/g16/l301.exe)
 Standard basis: def2TZVP (5D, 7F)
 Ernie: Thresh=  0.10000D-02 Tol=  0.10000D-05 Strict=F.
 There are   624 symmetry adapted cartesian basis functions of A   symmetry.
 There are   544 symmetry adapted basis functions of A   symmetry.
   544 basis functions,   880 primitive gaussians,   624 cartesian basis functions
    61 alpha electrons       61 beta electrons
       nuclear repulsion energy      1204.9105183062 Hartrees.
 IExCor= 1009 DFT=T Ex+Corr=PBE1PBE ExCW=0 ScaHFX=  0.250000
 ScaDFX=  0.750000  0.750000  1.000000  1.000000 ScalE2=  1.000000  1.000000
 IRadAn=  99590 IRanWt=     -1 IRanGd=            0 ICorTp=0 IEmpDi=131
 NAtoms=   24 NActive=   24 NUniq=   24 SFac= 1.00D+00 NAtFMM=   60 NAOKFM=F Big=F
 Integral buffers will be    131072 words long.
 Raffenetti 2 integral format.
 Two-electron integral symmetry is turned on.
 R6Disp:  Grimme-D3 Dispersion energy=       -0.0148189153 Hartrees.
 Nuclear repulsion after empirical dispersion term =     1204.8956993909 Hartrees.
 ------------------------------------------------------------------------------
 Polarizable Continuum Model (PCM)
 =================================
 Model                : PCM.
 Atomic radii         : UFF (Universal Force Field).
 Polarization charges : Total charges.
 Charge compensation  : None.
 Solution method      : On-the-fly selection.
 Cavity type          : Scaled VdW (van der Waals Surface) (Alpha=1.100).
 Cavity algorithm     : GePol (No added spheres)
                        Default sphere list used, NSphG=   24.
                        Lebedev-Laikov grids with approx.  5.0 points / Ang**2.
                        Smoothing algorithm: York/Karplus (Gamma=1.0000).
                        Polarization charges: spherical gaussians, with
                                              point-specific exponents (IZeta= 3).
                        Self-potential: point-specific (ISelfS= 7).
                        Self-field    : sphere-specific E.n sum rule (ISelfD= 2).
 1st derivatives      : Analytical E(r).r(x)/FMM algorithm (CHGder, D1EAlg=3).
                        Cavity 1st derivative terms included.
 Solvent              : Water, Eps=  78.355300 Eps(inf)=   1.777849
 ------------------------------------------------------------------------------
 GePol: Number of generator spheres                  =      24
 GePol: Total number of spheres                      =      24
 GePol: Number of exposed spheres                    =      24 (100.00%)
 GePol: Number of points                             =    2079
 GePol: Average weight of points                     =       0.13
 GePol: Minimum weight of points                     =   0.41D-11
 GePol: Maximum weight of points                     =    0.20577
 GePol: Number of points with low weight             =     108
 GePol: Fraction of low-weight points (<1% of avg)   =       5.19%
 GePol: Cavity surface area                          =    263.961 Ang**2
 GePol: Cavity volume                                =    275.264 Ang**3
 Leave Link  301 at Sun Jul  7 08:46:27 2024, MaxMem=  8053063680 cpu:               0.5 elap:               0.0
 (Enter /share/apps/g16.b01_avx2/g16/l302.exe)
 NPDir=0 NMtPBC=     1 NCelOv=     1 NCel=       1 NClECP=     1 NCelD=      1
         NCelK=      1 NCelE2=     1 NClLst=     1 CellRange=     0.0.
 One-electron integrals computed using PRISM.
 One-electron integral symmetry used in STVInt
   1 Symmetry operations used in ECPInt.
 ECPInt:  NShTT=   21736 NPrTT=   68272 LenC2=   19489 LenP2D=   44314.
 LDataN:  DoStor=T MaxTD1= 6 Len=  172
 NBasis=   544 RedAO= T EigKep=  4.69D-05  NBF=   544
 NBsUse=   544 1.00D-06 EigRej= -1.00D+00 NBFU=   544
 Precomputing XC quadrature grid using
 IXCGrd= 4 IRadAn=       99590 IRanWt=          -1 IRanGd=           0 AccXCQ= 0.00D+00.
 Generated NRdTot=       0 NPtTot=           0 NUsed=           0 NTot=          32
 NSgBfM=   616   616   616   616   616 MxSgAt=    24 MxSgA2=    24.
 Leave Link  302 at Sun Jul  7 08:46:27 2024, MaxMem=  8053063680 cpu:               3.8 elap:               0.2
 (Enter /share/apps/g16.b01_avx2/g16/l303.exe)
 DipDrv:  MaxL=1.
 Leave Link  303 at Sun Jul  7 08:46:27 2024, MaxMem=  8053063680 cpu:               0.6 elap:               0.0
 (Enter /share/apps/g16.b01_avx2/g16/l401.exe)
 ExpMin= 9.52D-02 ExpMax= 3.55D+04 ExpMxC= 1.21D+03 IAcc=4 IRadAn=    199590 AccDes= 0.00D+00
 Harris functional with IExCor= 1009 and IRadAn=  199590 diagonalized for initial guess.
 HarFok:  IExCor= 1009 AccDes= 0.00D+00 IRadAn=    199590 IDoV= 1 UseB2=F ITyADJ=14
 ICtDFT=  3500011 ScaDFX=  1.000000  1.000000  1.000000  1.000000
 FoFCou: FMM=F IPFlag=           0 FMFlag=      100000 FMFlg1=           0
         NFxFlg=           0 DoJE=T BraDBF=F KetDBF=T FulRan=T
         wScrn=  0.000000 ICntrl=       500 IOpCl=  0 I1Cent=   200000004 NGrid=           0
         NMat0=    1 NMatS0=      1 NMatT0=    0 NMatD0=    1 NMtDS0=    0 NMtDT0=    0
 Petite list used in FoFCou.
 Harris En= -968.388574660618    
 JPrj=0 DoOrth=F DoCkMO=F.
 Leave Link  401 at Sun Jul  7 08:46:30 2024, MaxMem=  8053063680 cpu:              32.8 elap:               2.1
 (Enter /share/apps/g16.b01_avx2/g16/l502.exe)
 Integral symmetry usage will be decided dynamically.
 Closed shell SCF:
 Using DIIS extrapolation, IDIIS=  1040.
 NGot=  8053063680 LenX=  8052269538 LenY=  8051879538
 Requested convergence on RMS density matrix=1.00D-08 within 128 cycles.
 Requested convergence on MAX density matrix=1.00D-06.
 Requested convergence on             energy=1.00D-06.
 No special actions if energy rises.
 Fock matrices will be formed incrementally for  20 cycles.

 Cycle   1  Pass 1  IDiag  1:
 FoFJK:  IHMeth= 1 ICntrl=       0 DoSepK=F KAlg= 0 I1Cent=           0 FoldK=F
 IRaf= 840000000 NMat=       1 IRICut=       1 DoRegI=T DoRafI=F ISym2E= 0 IDoP0=0 IntGTp=1.
 FoFCou: FMM=F IPFlag=           0 FMFlag=      100000 FMFlg1=           0
         NFxFlg=           0 DoJE=F BraDBF=F KetDBF=F FulRan=T
         wScrn=  0.000000 ICntrl=         0 IOpCl=  0 I1Cent=           0 NGrid=           0
         NMat0=    1 NMatS0=      1 NMatT0=    0 NMatD0=    1 NMtDS0=    0 NMtDT0=    0
 Symmetry not used in FoFCou.
 Inv3:  Mode=1 IEnd=    12966723.
 Iteration    1 A*A^-1 deviation from unit magnitude is 2.89D-15 for   1646.
 Iteration    1 A*A^-1 deviation from orthogonality  is 1.49D-15 for   1622   1404.
 Iteration    1 A^-1*A deviation from unit magnitude is 2.78D-15 for    738.
 Iteration    1 A^-1*A deviation from orthogonality  is 1.62D-15 for   2067   1221.
 E= -968.008534430709    
 DIIS: error= 1.73D-02 at cycle   1 NSaved=   1.
 NSaved= 1 IEnMin= 1 EnMin= -968.008534430709     IErMin= 1 ErrMin= 1.73D-02
 ErrMax= 1.73D-02  0.00D+00 EMaxC= 1.00D-01 BMatC= 3.93D-01 BMatP= 3.93D-01
 IDIUse=3 WtCom= 8.27D-01 WtEn= 1.73D-01
 Coeff-Com:  0.100D+01
 Coeff-En:   0.100D+01
 Coeff:      0.100D+01
 Gap=     0.240 Goal=   None    Shift=    0.000
 GapD=    0.240 DampG=1.000 DampE=0.500 DampFc=0.5000 IDamp=-1.
 Damping current iteration by 5.00D-01
 RMSDP=2.82D-03 MaxDP=1.93D-01              OVMax= 2.47D-01

 Cycle   2  Pass 1  IDiag  1:
 RMSU=  1.41D-03    CP:  9.92D-01
 E= -968.101916022729     Delta-E=       -0.093381592020 Rises=F Damp=T
 DIIS: error= 4.38D-03 at cycle   2 NSaved=   2.
 NSaved= 2 IEnMin= 2 EnMin= -968.101916022729     IErMin= 2 ErrMin= 4.38D-03
 ErrMax= 4.38D-03  0.00D+00 EMaxC= 1.00D-01 BMatC= 4.48D-02 BMatP= 3.93D-01
 IDIUse=3 WtCom= 9.56D-01 WtEn= 4.38D-02
 Coeff-Com:  0.133D+00 0.867D+00
 Coeff-En:   0.276D+00 0.724D+00
 Coeff:      0.139D+00 0.861D+00
 Gap=     0.189 Goal=   None    Shift=    0.000
 RMSDP=9.81D-04 MaxDP=7.30D-02 DE=-9.34D-02 OVMax= 1.99D-01

 Cycle   3  Pass 1  IDiag  1:
 RMSU=  6.57D-04    CP:  9.80D-01  4.88D-01
 E= -968.258712140276     Delta-E=       -0.156796117547 Rises=F Damp=F
 DIIS: error= 4.92D-03 at cycle   3 NSaved=   3.
 NSaved= 3 IEnMin= 3 EnMin= -968.258712140276     IErMin= 2 ErrMin= 4.38D-03
 ErrMax= 4.92D-03  0.00D+00 EMaxC= 1.00D-01 BMatC= 3.69D-02 BMatP= 4.48D-02
 IDIUse=3 WtCom= 9.51D-01 WtEn= 4.92D-02
 Coeff-Com: -0.160D-01 0.473D+00 0.543D+00
 Coeff-En:   0.000D+00 0.000D+00 0.100D+01
 Coeff:     -0.152D-01 0.450D+00 0.566D+00
 Gap=     0.185 Goal=   None    Shift=    0.000
 RMSDP=3.43D-04 MaxDP=2.62D-02 DE=-1.57D-01 OVMax= 5.71D-02

 Cycle   4  Pass 1  IDiag  1:
 RMSU=  2.80D-04    CP:  9.79D-01  6.02D-01  8.21D-01
 E= -968.281630442330     Delta-E=       -0.022918302055 Rises=F Damp=F
 DIIS: error= 1.75D-03 at cycle   4 NSaved=   4.
 NSaved= 4 IEnMin= 4 EnMin= -968.281630442330     IErMin= 4 ErrMin= 1.75D-03
 ErrMax= 1.75D-03  0.00D+00 EMaxC= 1.00D-01 BMatC= 6.01D-03 BMatP= 3.69D-02
 IDIUse=3 WtCom= 9.83D-01 WtEn= 1.75D-02
 Coeff-Com: -0.323D-01 0.124D+00 0.323D+00 0.585D+00
 Coeff-En:   0.000D+00 0.000D+00 0.135D+00 0.865D+00
 Coeff:     -0.317D-01 0.122D+00 0.320D+00 0.590D+00
 Gap=     0.172 Goal=   None    Shift=    0.000
 RMSDP=1.21D-04 MaxDP=6.79D-03 DE=-2.29D-02 OVMax= 1.96D-02

 Cycle   5  Pass 1  IDiag  1:
 RMSU=  6.77D-05    CP:  9.79D-01  5.99D-01  8.96D-01  6.89D-01
 E= -968.285970517197     Delta-E=       -0.004340074867 Rises=F Damp=F
 DIIS: error= 4.79D-04 at cycle   5 NSaved=   5.
 NSaved= 5 IEnMin= 5 EnMin= -968.285970517197     IErMin= 5 ErrMin= 4.79D-04
 ErrMax= 4.79D-04  0.00D+00 EMaxC= 1.00D-01 BMatC= 4.17D-04 BMatP= 6.01D-03
 IDIUse=3 WtCom= 9.95D-01 WtEn= 4.79D-03
 Coeff-Com: -0.154D-01 0.379D-01 0.129D+00 0.316D+00 0.533D+00
 Coeff-En:   0.000D+00 0.000D+00 0.000D+00 0.000D+00 0.100D+01
 Coeff:     -0.154D-01 0.377D-01 0.129D+00 0.314D+00 0.535D+00
 Gap=     0.176 Goal=   None    Shift=    0.000
 RMSDP=2.96D-05 MaxDP=1.80D-03 DE=-4.34D-03 OVMax= 4.92D-03

 Cycle   6  Pass 1  IDiag  1:
 RMSU=  1.68D-05    CP:  9.79D-01  5.96D-01  8.94D-01  7.30D-01  6.89D-01
 E= -968.286283534587     Delta-E=       -0.000313017390 Rises=F Damp=F
 DIIS: error= 1.11D-04 at cycle   6 NSaved=   6.
 NSaved= 6 IEnMin= 6 EnMin= -968.286283534587     IErMin= 6 ErrMin= 1.11D-04
 ErrMax= 1.11D-04  0.00D+00 EMaxC= 1.00D-01 BMatC= 2.45D-05 BMatP= 4.17D-04
 IDIUse=3 WtCom= 9.99D-01 WtEn= 1.11D-03
 Coeff-Com: -0.533D-02 0.867D-02 0.362D-01 0.107D+00 0.260D+00 0.594D+00
 Coeff-En:   0.000D+00 0.000D+00 0.000D+00 0.000D+00 0.000D+00 0.100D+01
 Coeff:     -0.533D-02 0.866D-02 0.361D-01 0.107D+00 0.259D+00 0.594D+00
 Gap=     0.176 Goal=   None    Shift=    0.000
 RMSDP=7.90D-06 MaxDP=6.67D-04 DE=-3.13D-04 OVMax= 7.28D-04

 Cycle   7  Pass 1  IDiag  1:
 RMSU=  6.83D-06    CP:  9.79D-01  5.96D-01  8.93D-01  7.25D-01  6.86D-01
                    CP:  7.99D-01
 E= -968.286301218389     Delta-E=       -0.000017683802 Rises=F Damp=F
 DIIS: error= 4.39D-05 at cycle   7 NSaved=   7.
 NSaved= 7 IEnMin= 7 EnMin= -968.286301218389     IErMin= 7 ErrMin= 4.39D-05
 ErrMax= 4.39D-05  0.00D+00 EMaxC= 1.00D-01 BMatC= 1.33D-06 BMatP= 2.45D-05
 IDIUse=1 WtCom= 1.00D+00 WtEn= 0.00D+00
 Coeff-Com: -0.133D-02 0.147D-02 0.704D-02 0.258D-01 0.798D-01 0.252D+00
 Coeff-Com:  0.635D+00
 Coeff:     -0.133D-02 0.147D-02 0.704D-02 0.258D-01 0.798D-01 0.252D+00
 Coeff:      0.635D+00
 Gap=     0.176 Goal=   None    Shift=    0.000
 RMSDP=2.57D-06 MaxDP=2.39D-04 DE=-1.77D-05 OVMax= 4.42D-04

 Cycle   8  Pass 1  IDiag  1:
 RMSU=  1.77D-06    CP:  9.79D-01  5.96D-01  8.93D-01  7.26D-01  7.01D-01
                    CP:  8.43D-01  8.27D-01
 E= -968.286301961886     Delta-E=       -0.000000743498 Rises=F Damp=F
 DIIS: error= 2.59D-05 at cycle   8 NSaved=   8.
 NSaved= 8 IEnMin= 8 EnMin= -968.286301961886     IErMin= 8 ErrMin= 2.59D-05
 ErrMax= 2.59D-05  0.00D+00 EMaxC= 1.00D-01 BMatC= 3.43D-07 BMatP= 1.33D-06
 IDIUse=1 WtCom= 1.00D+00 WtEn= 0.00D+00
 Coeff-Com: -0.106D-03-0.167D-03-0.572D-03 0.794D-03 0.112D-01 0.617D-01
 Coeff-Com:  0.367D+00 0.560D+00
 Coeff:     -0.106D-03-0.167D-03-0.572D-03 0.794D-03 0.112D-01 0.617D-01
 Coeff:      0.367D+00 0.560D+00
 Gap=     0.176 Goal=   None    Shift=    0.000
 RMSDP=1.09D-06 MaxDP=6.35D-05 DE=-7.43D-07 OVMax= 2.16D-04

 Cycle   9  Pass 1  IDiag  1:
 RMSU=  6.40D-07    CP:  9.79D-01  5.96D-01  8.94D-01  7.27D-01  7.00D-01
                    CP:  8.47D-01  8.86D-01  6.42D-01
 E= -968.286302250218     Delta-E=       -0.000000288331 Rises=F Damp=F
 DIIS: error= 5.11D-06 at cycle   9 NSaved=   9.
 NSaved= 9 IEnMin= 9 EnMin= -968.286302250218     IErMin= 9 ErrMin= 5.11D-06
 ErrMax= 5.11D-06  0.00D+00 EMaxC= 1.00D-01 BMatC= 2.58D-08 BMatP= 3.43D-07
 IDIUse=1 WtCom= 1.00D+00 WtEn= 0.00D+00
 Coeff-Com:  0.881D-04-0.230D-03-0.101D-02-0.238D-02-0.354D-02 0.111D-03
 Coeff-Com:  0.100D+00 0.278D+00 0.629D+00
 Coeff:      0.881D-04-0.230D-03-0.101D-02-0.238D-02-0.354D-02 0.111D-03
 Coeff:      0.100D+00 0.278D+00 0.629D+00
 Gap=     0.176 Goal=   None    Shift=    0.000
 RMSDP=3.64D-07 MaxDP=2.96D-05 DE=-2.88D-07 OVMax= 5.75D-05

 Cycle  10  Pass 1  IDiag  1:
 RMSU=  1.70D-07    CP:  9.79D-01  5.96D-01  8.93D-01  7.26D-01  7.00D-01
                    CP:  8.52D-01  9.08D-01  7.37D-01  7.53D-01
 E= -968.286302271348     Delta-E=       -0.000000021131 Rises=F Damp=F
 DIIS: error= 1.20D-06 at cycle  10 NSaved=  10.
 NSaved=10 IEnMin=10 EnMin= -968.286302271348     IErMin=10 ErrMin= 1.20D-06
 ErrMax= 1.20D-06  0.00D+00 EMaxC= 1.00D-01 BMatC= 2.00D-09 BMatP= 2.58D-08
 IDIUse=1 WtCom= 1.00D+00 WtEn= 0.00D+00
 Coeff-Com:  0.408D-04-0.951D-04-0.430D-03-0.105D-02-0.187D-02-0.201D-02
 Coeff-Com:  0.316D-01 0.113D+00 0.322D+00 0.540D+00
 Coeff:      0.408D-04-0.951D-04-0.430D-03-0.105D-02-0.187D-02-0.201D-02
 Coeff:      0.316D-01 0.113D+00 0.322D+00 0.540D+00
 Gap=     0.176 Goal=   None    Shift=    0.000
 RMSDP=8.05D-08 MaxDP=5.45D-06 DE=-2.11D-08 OVMax= 1.08D-05

 Cycle  11  Pass 1  IDiag  1:
 RMSU=  5.22D-08    CP:  9.79D-01  5.96D-01  8.94D-01  7.26D-01  7.00D-01
                    CP:  8.52D-01  9.07D-01  7.32D-01  7.83D-01  7.31D-01
 E= -968.286302272707     Delta-E=       -0.000000001358 Rises=F Damp=F
 DIIS: error= 4.02D-07 at cycle  11 NSaved=  11.
 NSaved=11 IEnMin=11 EnMin= -968.286302272707     IErMin=11 ErrMin= 4.02D-07
 ErrMax= 4.02D-07  0.00D+00 EMaxC= 1.00D-01 BMatC= 1.92D-10 BMatP= 2.00D-09
 IDIUse=1 WtCom= 1.00D+00 WtEn= 0.00D+00
 Coeff-Com:  0.516D-05-0.752D-05-0.470D-04-0.134D-03-0.426D-03-0.130D-02
 Coeff-Com: -0.268D-02 0.432D-02 0.367D-01 0.250D+00 0.713D+00
 Coeff:      0.516D-05-0.752D-05-0.470D-04-0.134D-03-0.426D-03-0.130D-02
 Coeff:     -0.268D-02 0.432D-02 0.367D-01 0.250D+00 0.713D+00
 Gap=     0.176 Goal=   None    Shift=    0.000
 RMSDP=3.01D-08 MaxDP=1.81D-06 DE=-1.36D-09 OVMax= 2.63D-06

 Cycle  12  Pass 1  IDiag  1:
 RMSU=  1.59D-08    CP:  9.79D-01  5.96D-01  8.94D-01  7.26D-01  7.00D-01
                    CP:  8.52D-01  9.08D-01  7.38D-01  7.89D-01  8.15D-01
                    CP:  8.12D-01
 E= -968.286302272867     Delta-E=       -0.000000000160 Rises=F Damp=F
 DIIS: error= 9.30D-08 at cycle  12 NSaved=  12.
 NSaved=12 IEnMin=12 EnMin= -968.286302272867     IErMin=12 ErrMin= 9.30D-08
 ErrMax= 9.30D-08  0.00D+00 EMaxC= 1.00D-01 BMatC= 1.78D-11 BMatP= 1.92D-10
 IDIUse=1 WtCom= 1.00D+00 WtEn= 0.00D+00
 Coeff-Com: -0.373D-06 0.299D-05 0.573D-05 0.839D-05-0.795D-04-0.445D-03
 Coeff-Com: -0.346D-02-0.528D-02-0.296D-02 0.828D-01 0.340D+00 0.590D+00
 Coeff:     -0.373D-06 0.299D-05 0.573D-05 0.839D-05-0.795D-04-0.445D-03
 Coeff:     -0.346D-02-0.528D-02-0.296D-02 0.828D-01 0.340D+00 0.590D+00
 Gap=     0.176 Goal=   None    Shift=    0.000
 RMSDP=7.14D-09 MaxDP=4.77D-07 DE=-1.60D-10 OVMax= 1.01D-06

 Error on total polarization charges =  0.01062
 SCF Done:  E(RPBE1PBE) =  -968.286302273     A.U. after   12 cycles
            NFock= 12  Conv=0.71D-08     -V/T= 2.0043
 KE= 9.641722654290D+02 PE=-4.691164264443D+03 EE= 1.553809997350D+03
 Leave Link  502 at Sun Jul  7 08:47:34 2024, MaxMem=  8053063680 cpu:            1030.0 elap:              64.6
 (Enter /share/apps/g16.b01_avx2/g16/l601.exe)
 Copying SCF densities to generalized density rwf, IOpCl= 0 IROHF=0.

 **********************************************************************

            Population analysis using the SCF Density.

 **********************************************************************

 Orbital symmetries:
       Occupied  (A) (A) (A) (A) (A) (A) (A) (A) (A) (A) (A) (A)
                 (A) (A) (A) (A) (A) (A) (A) (A) (A) (A) (A) (A)
                 (A) (A) (A) (A) (A) (A) (A) (A) (A) (A) (A) (A)
                 (A) (A) (A) (A) (A) (A) (A) (A) (A) (A) (A) (A)
                 (A) (A) (A) (A) (A) (A) (A) (A) (A) (A) (A) (A)
                 (A)
       Virtual   (A) (A) (A) (A) (A) (A) (A) (A) (A) (A) (A) (A)
                 (A) (A) (A) (A) (A) (A) (A) (A) (A) (A) (A) (A)
                 (A) (A) (A) (A) (A) (A) (A) (A) (A) (A) (A) (A)
                 (A) (A) (A) (A) (A) (A) (A) (A) (A) (A) (A) (A)
                 (A) (A) (A) (A) (A) (A) (A) (A) (A) (A) (A) (A)
                 (A) (A) (A) (A) (A) (A) (A) (A) (A) (A) (A) (A)
                 (A) (A) (A) (A) (A) (A) (A) (A) (A) (A) (A) (A)
                 (A) (A) (A) (A) (A) (A) (A) (A) (A) (A) (A) (A)
                 (A) (A) (A) (A) (A) (A) (A) (A) (A) (A) (A) (A)
                 (A) (A) (A) (A) (A) (A) (A) (A) (A) (A) (A) (A)
                 (A) (A) (A) (A) (A) (A) (A) (A) (A) (A) (A) (A)
                 (A) (A) (A) (A) (A) (A) (A) (A) (A) (A) (A) (A)
                 (A) (A) (A) (A) (A) (A) (A) (A) (A) (A) (A) (A)
                 (A) (A) (A) (A) (A) (A) (A) (A) (A) (A) (A) (A)
                 (A) (A) (A) (A) (A) (A) (A) (A) (A) (A) (A) (A)
                 (A) (A) (A) (A) (A) (A) (A) (A) (A) (A) (A) (A)
                 (A) (A) (A) (A) (A) (A) (A) (A) (A) (A) (A) (A)
                 (A) (A) (A) (A) (A) (A) (A) (A) (A) (A) (A) (A)
                 (A) (A) (A) (A) (A) (A) (A) (A) (A) (A) (A) (A)
                 (A) (A) (A) (A) (A) (A) (A) (A) (A) (A) (A) (A)
                 (A) (A) (A) (A) (A) (A) (A) (A) (A) (A) (A) (A)
                 (A) (A) (A) (A) (A) (A) (A) (A) (A) (A) (A) (A)
                 (A) (A) (A) (A) (A) (A) (A) (A) (A) (A) (A) (A)
                 (A) (A) (A) (A) (A) (A) (A) (A) (A) (A) (A) (A)
                 (A) (A) (A) (A) (A) (A) (A) (A) (A) (A) (A) (A)
                 (A) (A) (A) (A) (A) (A) (A) (A) (A) (A) (A) (A)
                 (A) (A) (A) (A) (A) (A) (A) (A) (A) (A) (A) (A)
                 (A) (A) (A) (A) (A) (A) (A) (A) (A) (A) (A) (A)
                 (A) (A) (A) (A) (A) (A) (A) (A) (A) (A) (A) (A)
                 (A) (A) (A) (A) (A) (A) (A) (A) (A) (A) (A) (A)
                 (A) (A) (A) (A) (A) (A) (A) (A) (A) (A) (A) (A)
                 (A) (A) (A) (A) (A) (A) (A) (A) (A) (A) (A) (A)
                 (A) (A) (A) (A) (A) (A) (A) (A) (A) (A) (A) (A)
                 (A) (A) (A) (A) (A) (A) (A) (A) (A) (A) (A) (A)
                 (A) (A) (A) (A) (A) (A) (A) (A) (A) (A) (A) (A)
                 (A) (A) (A) (A) (A) (A) (A) (A) (A) (A) (A) (A)
                 (A) (A) (A) (A) (A) (A) (A) (A) (A) (A) (A) (A)
                 (A) (A) (A) (A) (A) (A) (A) (A) (A) (A) (A) (A)
                 (A) (A) (A) (A) (A) (A) (A) (A) (A) (A) (A) (A)
                 (A) (A) (A) (A) (A) (A) (A) (A) (A) (A) (A) (A)
                 (A) (A) (A)
 The electronic state is 1-A.
 Alpha  occ. eigenvalues --  -24.82681 -24.82293 -24.82185 -24.82143 -19.27652
 Alpha  occ. eigenvalues --  -19.15961 -14.44349 -14.37083 -10.39185 -10.39125
 Alpha  occ. eigenvalues --  -10.36996 -10.36639 -10.36516 -10.36163 -10.23699
 Alpha  occ. eigenvalues --  -10.23341  -1.30496  -1.30183  -1.29259  -1.28995
 Alpha  occ. eigenvalues --   -1.17513  -1.03077  -1.01912  -0.91378  -0.88731
 Alpha  occ. eigenvalues --   -0.82540  -0.78997  -0.72660  -0.71367  -0.69038
 Alpha  occ. eigenvalues --   -0.65761  -0.63264  -0.61939  -0.59791  -0.58192
 Alpha  occ. eigenvalues --   -0.56002  -0.55694  -0.53242  -0.52671  -0.52265
 Alpha  occ. eigenvalues --   -0.51142  -0.50567  -0.50314  -0.49471  -0.48410
 Alpha  occ. eigenvalues --   -0.46840  -0.46162  -0.45834  -0.44102  -0.42527
 Alpha  occ. eigenvalues --   -0.41979  -0.41504  -0.40432  -0.40289  -0.38917
 Alpha  occ. eigenvalues --   -0.35787  -0.32955  -0.32544  -0.28888  -0.28199
 Alpha  occ. eigenvalues --   -0.24089
 Alpha virt. eigenvalues --   -0.06524  -0.03590  -0.00504   0.01306   0.05398
 Alpha virt. eigenvalues --    0.05639   0.08237   0.08728   0.09149   0.10496
 Alpha virt. eigenvalues --    0.11937   0.12573   0.13104   0.13573   0.13957
 Alpha virt. eigenvalues --    0.14863   0.16275   0.16392   0.16803   0.18278
 Alpha virt. eigenvalues --    0.18878   0.19979   0.21117   0.21236   0.22576
 Alpha virt. eigenvalues --    0.23169   0.23763   0.24285   0.24730   0.25526
 Alpha virt. eigenvalues --    0.26304   0.27090   0.28182   0.29400   0.30402
 Alpha virt. eigenvalues --    0.31298   0.32172   0.32965   0.33867   0.34445
 Alpha virt. eigenvalues --    0.35412   0.35948   0.36626   0.37741   0.38633
 Alpha virt. eigenvalues --    0.39391   0.39462   0.40245   0.40954   0.42258
 Alpha virt. eigenvalues --    0.42766   0.43218   0.44426   0.44503   0.45020
 Alpha virt. eigenvalues --    0.46537   0.47127   0.47286   0.47809   0.48441
 Alpha virt. eigenvalues --    0.48823   0.49693   0.50902   0.51754   0.53059
 Alpha virt. eigenvalues --    0.54104   0.54778   0.56047   0.56504   0.57898
 Alpha virt. eigenvalues --    0.58700   0.58895   0.60328   0.61028   0.61450
 Alpha virt. eigenvalues --    0.61837   0.62934   0.64623   0.65257   0.66165
 Alpha virt. eigenvalues --    0.66765   0.68029   0.68867   0.69621   0.69786
 Alpha virt. eigenvalues --    0.72942   0.73884   0.74601   0.75742   0.76587
 Alpha virt. eigenvalues --    0.77923   0.79865   0.81167   0.81798   0.82323
 Alpha virt. eigenvalues --    0.83951   0.85186   0.85269   0.85979   0.87479
 Alpha virt. eigenvalues --    0.87809   0.88759   0.89396   0.90279   0.92235
 Alpha virt. eigenvalues --    0.92908   0.93226   0.95151   0.97097   0.98701
 Alpha virt. eigenvalues --    0.99490   1.00327   1.01126   1.02244   1.04436
 Alpha virt. eigenvalues --    1.05775   1.06314   1.07482   1.08613   1.10173
 Alpha virt. eigenvalues --    1.11042   1.12382   1.13898   1.14621   1.15371
 Alpha virt. eigenvalues --    1.18999   1.21456   1.24647   1.24767   1.26439
 Alpha virt. eigenvalues --    1.27650   1.28578   1.30568   1.31534   1.34186
 Alpha virt. eigenvalues --    1.35868   1.37157   1.39517   1.39613   1.41609
 Alpha virt. eigenvalues --    1.42046   1.43841   1.45060   1.46354   1.47802
 Alpha virt. eigenvalues --    1.49099   1.50259   1.52483   1.54491   1.54673
 Alpha virt. eigenvalues --    1.55053   1.56250   1.57258   1.58415   1.58668
 Alpha virt. eigenvalues --    1.59308   1.60634   1.61382   1.61769   1.64056
 Alpha virt. eigenvalues --    1.64553   1.68294   1.69250   1.70627   1.72223
 Alpha virt. eigenvalues --    1.73211   1.74415   1.76539   1.78843   1.80537
 Alpha virt. eigenvalues --    1.81969   1.84709   1.85854   1.87040   1.87799
 Alpha virt. eigenvalues --    1.89310   1.91160   1.91452   1.92814   1.93807
 Alpha virt. eigenvalues --    1.94929   1.96251   1.98143   1.99597   2.00072
 Alpha virt. eigenvalues --    2.01696   2.02792   2.03862   2.04867   2.06182
 Alpha virt. eigenvalues --    2.07332   2.08315   2.09650   2.11571   2.12806
 Alpha virt. eigenvalues --    2.13757   2.15716   2.15989   2.17213   2.19234
 Alpha virt. eigenvalues --    2.20934   2.21479   2.23442   2.24172   2.25352
 Alpha virt. eigenvalues --    2.26351   2.28960   2.29174   2.31229   2.32831
 Alpha virt. eigenvalues --    2.33463   2.34048   2.35450   2.37908   2.38725
 Alpha virt. eigenvalues --    2.40137   2.42062   2.42746   2.44651   2.45714
 Alpha virt. eigenvalues --    2.46765   2.47500   2.48389   2.50545   2.51460
 Alpha virt. eigenvalues --    2.53136   2.56520   2.57083   2.58261   2.59666
 Alpha virt. eigenvalues --    2.60809   2.62309   2.63733   2.65166   2.66736
 Alpha virt. eigenvalues --    2.67546   2.68009   2.70846   2.72158   2.73228
 Alpha virt. eigenvalues --    2.74759   2.75059   2.76779   2.78069   2.78124
 Alpha virt. eigenvalues --    2.78870   2.81011   2.81586   2.83992   2.85075
 Alpha virt. eigenvalues --    2.86130   2.87710   2.88979   2.89272   2.89722
 Alpha virt. eigenvalues --    2.91099   2.91945   2.95790   2.96672   2.97746
 Alpha virt. eigenvalues --    2.98362   2.99929   3.00585   3.01450   3.03374
 Alpha virt. eigenvalues --    3.04024   3.04304   3.04982   3.06565   3.08641
 Alpha virt. eigenvalues --    3.09443   3.10075   3.11859   3.13875   3.14436
 Alpha virt. eigenvalues --    3.15532   3.15897   3.17246   3.17902   3.18615
 Alpha virt. eigenvalues --    3.19761   3.21048   3.21980   3.22806   3.23749
 Alpha virt. eigenvalues --    3.24515   3.25155   3.26441   3.26896   3.28133
 Alpha virt. eigenvalues --    3.28960   3.29894   3.31241   3.34638   3.35955
 Alpha virt. eigenvalues --    3.36991   3.38217   3.39539   3.40677   3.41485
 Alpha virt. eigenvalues --    3.42453   3.45108   3.45398   3.48554   3.48927
 Alpha virt. eigenvalues --    3.51397   3.52099   3.52650   3.53398   3.55049
 Alpha virt. eigenvalues --    3.57417   3.58097   3.58655   3.59578   3.60492
 Alpha virt. eigenvalues --    3.60910   3.62888   3.65785   3.69871   3.72311
 Alpha virt. eigenvalues --    3.74413   3.75396   3.76873   3.78651   3.80921
 Alpha virt. eigenvalues --    3.83164   3.87254   3.87599   3.89923   3.93082
 Alpha virt. eigenvalues --    3.93672   3.94937   3.95404   3.97804   4.01433
 Alpha virt. eigenvalues --    4.01885   4.04012   4.08925   4.09812   4.10725
 Alpha virt. eigenvalues --    4.11333   4.11679   4.15087   4.15596   4.19336
 Alpha virt. eigenvalues --    4.20151   4.25397   4.26449   4.28949   4.30360
 Alpha virt. eigenvalues --    4.31499   4.33585   4.36979   4.37776   4.40798
 Alpha virt. eigenvalues --    4.42804   4.44323   4.46669   4.47448   4.49608
 Alpha virt. eigenvalues --    4.56102   4.61750   4.68103   4.70455   4.73526
 Alpha virt. eigenvalues --    4.78374   4.79948   4.80652   4.82940   4.86170
 Alpha virt. eigenvalues --    4.89377   4.92057   4.92626   4.94640   4.98714
 Alpha virt. eigenvalues --    5.02184   5.05062   5.10936   5.14028   5.14386
 Alpha virt. eigenvalues --    5.14870   5.19017   5.22046   5.22236   5.23527
 Alpha virt. eigenvalues --    5.25159   5.26988   5.29387   5.37418   5.42533
 Alpha virt. eigenvalues --    5.45129   5.46239   5.51695   5.55885   5.64313
 Alpha virt. eigenvalues --    5.65676   5.66599   5.69541   5.71753   5.75731
 Alpha virt. eigenvalues --    5.84849   5.87175   6.00378   6.21245   6.22805
 Alpha virt. eigenvalues --    6.26201   6.31059   6.42456   6.50942   6.61797
 Alpha virt. eigenvalues --    6.71294   6.79633   6.84535   6.84681   6.85009
 Alpha virt. eigenvalues --    6.85220   6.85736   6.85807   6.85849   6.87153
 Alpha virt. eigenvalues --    6.88677   6.92297   6.92415   6.98252   6.98569
 Alpha virt. eigenvalues --    6.99769   7.00137   7.01277   7.04828   7.07383
 Alpha virt. eigenvalues --    7.09219   7.12829   7.14092   7.15005   7.15574
 Alpha virt. eigenvalues --    7.24727   7.25714   7.27180   7.29234   7.31661
 Alpha virt. eigenvalues --    7.37090   7.42993   7.43659   7.46571   7.49866
 Alpha virt. eigenvalues --    7.68533   7.87110   8.30964   8.32004   8.35568
 Alpha virt. eigenvalues --    8.38669   8.44714   8.47980   8.53935   8.59779
 Alpha virt. eigenvalues --    8.69296   8.69923   8.77655   8.79369   8.81875
 Alpha virt. eigenvalues --    8.85925   8.95861   8.96726   8.99675   9.01057
 Alpha virt. eigenvalues --    9.07629   9.11888  22.42852  22.44899  22.48190
 Alpha virt. eigenvalues --   22.83966  22.84307  23.03561  23.24095  23.51704
 Alpha virt. eigenvalues --   32.20656  32.51257  44.26433  44.57844  57.25712
 Alpha virt. eigenvalues --   57.33739  57.49380  57.52375
          Condensed to atoms (all electrons):
               1          2          3          4          5          6
     1  H    0.474414   0.013820  -0.024898   0.338942  -0.025281  -0.016659
     2  O    0.013820   8.220069   0.625284  -0.232996   0.012286   0.000468
     3  C   -0.024898   0.625284   4.539755   0.046303   0.008942  -0.005661
     4  N    0.338942  -0.232996   0.046303   6.940202   0.304897   0.223536
     5  H   -0.025281   0.012286   0.008942   0.304897   0.495167  -0.019817
     6  C   -0.016659   0.000468  -0.005661   0.223536  -0.019817   4.881795
     7  H    0.007381   0.000774  -0.004299  -0.037499  -0.006993   0.415215
     8  H   -0.002866   0.021334   0.002131  -0.058405   0.010392   0.409020
     9  H   -0.011524  -0.002229   0.001863  -0.024806  -0.007752   0.410294
    10  C    0.010948  -0.047418   0.334773  -0.046197  -0.005853   0.005540
    11  H   -0.000669   0.000066  -0.031569   0.011667  -0.000449  -0.000911
    12  H   -0.000274   0.001625  -0.037207  -0.002384   0.000218  -0.000051
    13  H   -0.000044   0.000817  -0.023118  -0.001152  -0.000983  -0.002191
    14  C   -0.000781  -0.003442   0.002751   0.000564  -0.000325  -0.000031
    15  C   -0.004565   0.001041  -0.013131  -0.010688   0.000902   0.001337
    16  C    0.003568   0.007922  -0.088080   0.005394  -0.000077   0.000056
    17  C   -0.000983   0.026483   0.007367   0.005200  -0.000637  -0.000176
    18  C    0.000048  -0.002369  -0.001102   0.000201  -0.000015  -0.000012
    19  N    0.000024  -0.000116  -0.000089  -0.000009  -0.000009  -0.000000
    20  O   -0.002050  -0.161621   0.333444  -0.029996   0.000496   0.000119
    21  F    0.001557  -0.000418   0.000364  -0.001226   0.001985  -0.000062
    22  F   -0.000006  -0.001253   0.007914  -0.000016   0.000002   0.000002
    23  F   -0.000000   0.000001   0.000009  -0.000000  -0.000000   0.000000
    24  F    0.000030   0.000000   0.000010  -0.000005  -0.000007  -0.000000
               7          8          9         10         11         12
     1  H    0.007381  -0.002866  -0.011524   0.010948  -0.000669  -0.000274
     2  O    0.000774   0.021334  -0.002229  -0.047418   0.000066   0.001625
     3  C   -0.004299   0.002131   0.001863   0.334773  -0.031569  -0.037207
     4  N   -0.037499  -0.058405  -0.024806  -0.046197   0.011667  -0.002384
     5  H   -0.006993   0.010392  -0.007752  -0.005853  -0.000449   0.000218
     6  C    0.415215   0.409020   0.410294   0.005540  -0.000911  -0.000051
     7  H    0.526343  -0.022772  -0.024077   0.002070  -0.000108  -0.001031
     8  H   -0.022772   0.538776  -0.030042  -0.004402  -0.000250   0.000460
     9  H   -0.024077  -0.030042   0.549287   0.000088   0.000054   0.000304
    10  C    0.002070  -0.004402   0.000088   5.000025   0.377708   0.411201
    11  H   -0.000108  -0.000250   0.000054   0.377708   0.522807  -0.015778
    12  H   -0.001031   0.000460   0.000304   0.411201  -0.015778   0.501996
    13  H    0.000601   0.000095   0.000035   0.400968  -0.015478  -0.016814
    14  C    0.000003  -0.000005   0.000001   0.000050  -0.000001   0.000001
    15  C   -0.000018   0.000070  -0.000126  -0.002072  -0.000023   0.000055
    16  C    0.000025  -0.000180  -0.000024  -0.003876  -0.000242   0.000145
    17  C   -0.000004  -0.000133   0.000024   0.001610   0.000497  -0.000024
    18  C   -0.000000   0.000002   0.000001  -0.000182   0.000022   0.000001
    19  N    0.000000   0.000000  -0.000000   0.000005  -0.000000  -0.000000
    20  O    0.000215   0.000796  -0.000072  -0.077509   0.002736   0.004706
    21  F   -0.000029  -0.000006   0.000160  -0.000130   0.000005  -0.000008
    22  F   -0.000000   0.000001  -0.000000  -0.000915   0.000187   0.000005
    23  F    0.000000  -0.000000  -0.000000   0.000000  -0.000000   0.000000
    24  F   -0.000000   0.000000   0.000000  -0.000000   0.000000   0.000000
              13         14         15         16         17         18
     1  H   -0.000044  -0.000781  -0.004565   0.003568  -0.000983   0.000048
     2  O    0.000817  -0.003442   0.001041   0.007922   0.026483  -0.002369
     3  C   -0.023118   0.002751  -0.013131  -0.088080   0.007367  -0.001102
     4  N   -0.001152   0.000564  -0.010688   0.005394   0.005200   0.000201
     5  H   -0.000983  -0.000325   0.000902  -0.000077  -0.000637  -0.000015
     6  C   -0.002191  -0.000031   0.001337   0.000056  -0.000176  -0.000012
     7  H    0.000601   0.000003  -0.000018   0.000025  -0.000004  -0.000000
     8  H    0.000095  -0.000005   0.000070  -0.000180  -0.000133   0.000002
     9  H    0.000035   0.000001  -0.000126  -0.000024   0.000024   0.000001
    10  C    0.400968   0.000050  -0.002072  -0.003876   0.001610  -0.000182
    11  H   -0.015478  -0.000001  -0.000023  -0.000242   0.000497   0.000022
    12  H   -0.016814   0.000001   0.000055   0.000145  -0.000024   0.000001
    13  H    0.485800   0.000014   0.000203   0.000051  -0.000081   0.000004
    14  C    0.000014   4.562203   0.399413  -0.009229  -0.033602  -0.049386
    15  C    0.000203   0.399413   5.137900   0.256402   0.057713  -0.033348
    16  C    0.000051  -0.009229   0.256402   5.240051   0.241492  -0.013709
    17  C   -0.000081  -0.033602   0.057713   0.241492   5.068958   0.419159
    18  C    0.000004  -0.049386  -0.033348  -0.013709   0.419159   4.574302
    19  N    0.000000   0.550927  -0.121369   0.021718  -0.116566   0.538188
    20  O    0.003095   0.003609  -0.022805   0.286222  -0.040316   0.004657
    21  F   -0.000028  -0.026897   0.272921  -0.053534   0.004723   0.000138
    22  F    0.000003   0.000125   0.004903  -0.062869   0.301003  -0.034491
    23  F    0.000000  -0.002456  -0.000866   0.004940  -0.074595   0.358478
    24  F    0.000000   0.363223  -0.078427   0.004950  -0.000776  -0.002627
              19         20         21         22         23         24
     1  H    0.000024  -0.002050   0.001557  -0.000006  -0.000000   0.000030
     2  O   -0.000116  -0.161621  -0.000418  -0.001253   0.000001   0.000000
     3  C   -0.000089   0.333444   0.000364   0.007914   0.000009   0.000010
     4  N   -0.000009  -0.029996  -0.001226  -0.000016  -0.000000  -0.000005
     5  H   -0.000009   0.000496   0.001985   0.000002  -0.000000  -0.000007
     6  C   -0.000000   0.000119  -0.000062   0.000002   0.000000  -0.000000
     7  H    0.000000   0.000215  -0.000029  -0.000000   0.000000  -0.000000
     8  H    0.000000   0.000796  -0.000006   0.000001  -0.000000   0.000000
     9  H   -0.000000  -0.000072   0.000160  -0.000000  -0.000000   0.000000
    10  C    0.000005  -0.077509  -0.000130  -0.000915   0.000000  -0.000000
    11  H   -0.000000   0.002736   0.000005   0.000187  -0.000000   0.000000
    12  H   -0.000000   0.004706  -0.000008   0.000005   0.000000   0.000000
    13  H    0.000000   0.003095  -0.000028   0.000003   0.000000   0.000000
    14  C    0.550927   0.003609  -0.026897   0.000125  -0.002456   0.363223
    15  C   -0.121369  -0.022805   0.272921   0.004903  -0.000866  -0.078427
    16  C    0.021718   0.286222  -0.053534  -0.062869   0.004940   0.004950
    17  C   -0.116566  -0.040316   0.004723   0.301003  -0.074595  -0.000776
    18  C    0.538188   0.004657   0.000138  -0.034491   0.358478  -0.002627
    19  N    6.464263   0.000101   0.003482   0.003717  -0.070982  -0.070979
    20  O    0.000101   7.886940  -0.000119   0.000046  -0.000033  -0.000032
    21  F    0.003482  -0.000119   8.965978  -0.000020   0.000001   0.001903
    22  F    0.003717   0.000046  -0.000020   8.946712   0.002100   0.000001
    23  F   -0.070982  -0.000033   0.000001   0.002100   8.938792  -0.000027
    24  F   -0.070979  -0.000032   0.001903   0.000001  -0.000027   8.937667
 Mulliken charges:
               1
     1  H    0.239868
     2  O   -0.480129
     3  C    0.318246
     4  N   -0.431528
     5  H    0.232911
     6  C   -0.301811
     7  H    0.144202
     8  H    0.135985
     9  H    0.138544
    10  C   -0.356432
    11  H    0.149729
    12  H    0.152857
    13  H    0.168203
    14  C    0.243272
    15  C    0.154579
    16  C    0.158883
    17  C    0.133664
    18  C    0.242041
    19  N   -0.202306
    20  O   -0.192628
    21  F   -0.170739
    22  F   -0.167149
    23  F   -0.155362
    24  F   -0.154904
 Sum of Mulliken charges =  -0.00000
 Mulliken charges with hydrogens summed into heavy atoms:
               1
     2  O   -0.480129
     3  C    0.318246
     4  N    0.041252
     6  C    0.116920
    10  C    0.114358
    14  C    0.243272
    15  C    0.154579
    16  C    0.158883
    17  C    0.133664
    18  C    0.242041
    19  N   -0.202306
    20  O   -0.192628
    21  F   -0.170739
    22  F   -0.167149
    23  F   -0.155362
    24  F   -0.154904
 Electronic spatial extent (au):  <R**2>=           3742.2405
 Charge=             -0.0000 electrons
 Dipole moment (field-independent basis, Debye):
    X=             -4.8438    Y=              1.3273    Z=             -3.0249  Tot=              5.8630
 Quadrupole moment (field-independent basis, Debye-Ang):
   XX=            -84.6286   YY=            -92.5820   ZZ=            -90.8227
   XY=             -3.4546   XZ=              2.2788   YZ=              3.6698
 Traceless Quadrupole moment (field-independent basis, Debye-Ang):
   XX=              4.7158   YY=             -3.2375   ZZ=             -1.4783
   XY=             -3.4546   XZ=              2.2788   YZ=              3.6698
 Octapole moment (field-independent basis, Debye-Ang**2):
  XXX=            -81.1458  YYY=             -0.6960  ZZZ=             -6.7227  XYY=            -14.3763
  XXY=             -1.7052  XXZ=            -20.9257  XZZ=              9.8151  YZZ=              6.4996
  YYZ=             -3.9981  XYZ=             -6.5695
 Hexadecapole moment (field-independent basis, Debye-Ang**3):
 XXXX=          -2950.7087 YYYY=          -1169.6888 ZZZZ=           -304.9455 XXXY=            -35.8840
 XXXZ=              9.7717 YYYX=            -23.2765 YYYZ=             -2.6204 ZZZX=             26.7383
 ZZZY=            -11.9845 XXYY=           -691.7402 XXZZ=           -539.9407 YYZZ=           -236.9121
 XXYZ=              7.2213 YYXZ=              9.3934 ZZXY=            -14.4054
 N-N= 1.204895699391D+03 E-N=-4.691164268075D+03  KE= 9.641722654290D+02
 No NMR shielding tensors so no spin-rotation constants.
 Leave Link  601 at Sun Jul  7 08:47:34 2024, MaxMem=  8053063680 cpu:               1.8 elap:               0.1
 (Enter /share/apps/g16.b01_avx2/g16/l701.exe)
 ... and contract with generalized density number  0.
 Compute integral first derivatives.
 R6Disp: Adding Grimme-D3 dispersion energy 1st derivatives to the gradient.
   1 Symmetry operations used in ECPInt.
 ECPInt:  NShTT=   21736 NPrTT=   68272 LenC2=   19489 LenP2D=   44314.
 LDataN:  DoStor=T MaxTD1= 7 Len=  274
 D1PCM: PCM CHGder 1st derivatives, ID1Alg=3 FixD1E=F DoIter=F DoCFld=F I1PDM=0.
 GePol: Maximum number of non-zero 1st derivatives   =     213
 Leave Link  701 at Sun Jul  7 08:47:35 2024, MaxMem=  8053063680 cpu:              13.2 elap:               0.8
 (Enter /share/apps/g16.b01_avx2/g16/l702.exe)
 L702 exits ... SP integral derivatives will be done elsewhere.
 Leave Link  702 at Sun Jul  7 08:47:35 2024, MaxMem=  8053063680 cpu:               0.3 elap:               0.0
 (Enter /share/apps/g16.b01_avx2/g16/l703.exe)
 Integral derivatives from FoFJK, PRISM(SPDF).
 Compute integral first derivatives, UseDBF=F ICtDFT=           0.
 Calling FoFJK, ICntrl=      2127 FMM=F ISym2X=0 I1Cent= 0 IOpClX= 0 NMat=1 NMatS=1 NMatT=0.
 FoFJK:  IHMeth= 1 ICntrl=    2127 DoSepK=F KAlg= 0 I1Cent=           0 FoldK=F
 IRaf=         0 NMat=       1 IRICut=       1 DoRegI=T DoRafI=F ISym2E= 0 IDoP0=0 IntGTp=1.
 FoFCou: FMM=F IPFlag=           0 FMFlag=      100000 FMFlg1=         800
         NFxFlg=           0 DoJE=F BraDBF=F KetDBF=F FulRan=T
         wScrn=  0.000000 ICntrl=      2127 IOpCl=  0 I1Cent=           0 NGrid=           0
         NMat0=    1 NMatS0=      1 NMatT0=    0 NMatD0=    1 NMtDS0=    0 NMtDT0=    0
 Symmetry not used in FoFCou.
 Leave Link  703 at Sun Jul  7 08:47:58 2024, MaxMem=  8053063680 cpu:             358.5 elap:              22.4
 (Enter /share/apps/g16.b01_avx2/g16/l716.exe)
 Dipole        =-1.90571325D+00 5.22206552D-01-1.19010193D+00
 ***** Axes restored to original set *****
 -------------------------------------------------------------------
 Center     Atomic                   Forces (Hartrees/Bohr)
 Number     Number              X              Y              Z
 -------------------------------------------------------------------
      1        1          -0.000062761   -0.004042713    0.009002326
      2        8          -0.022016492    0.078413883    0.034733203
      3        6          -0.067851357   -0.028054266   -0.026948083
      4        7           0.005792986   -0.059714277    0.008683333
      5        1          -0.006166409   -0.006561605    0.002768305
      6        6           0.013160583    0.000437824   -0.012415676
      7        1          -0.000421162    0.000019915    0.002147104
      8        1          -0.002336845    0.000883549    0.001121070
      9        1          -0.006037150   -0.002242309    0.003856334
     10        6          -0.010699542    0.024573482   -0.001930846
     11        1           0.002532057    0.002072151    0.002143677
     12        1           0.000256691   -0.000589694   -0.000741246
     13        1          -0.001455913    0.002270879   -0.008518359
     14        6           0.000738141    0.019503551   -0.014676256
     15        6          -0.000004596   -0.011879065   -0.008173319
     16        6          -0.012102226    0.003711014    0.043630479
     17        6           0.001007205    0.014195295   -0.007467494
     18        6          -0.002387759   -0.019438440   -0.013208994
     19        7           0.006171244   -0.000349949    0.042317014
     20        8           0.100461905   -0.010606830   -0.071728239
     21        9           0.000811525    0.019617512   -0.011456133
     22        9          -0.004424449   -0.022254384   -0.009410156
     23        9           0.000625410   -0.020970223    0.018386671
     24        9           0.004408915    0.021004701    0.017885285
 -------------------------------------------------------------------
 Cartesian Forces:  Max     0.100461905 RMS     0.024316885
 Leave Link  716 at Sun Jul  7 08:47:58 2024, MaxMem=  8053063680 cpu:               0.3 elap:               0.0
 (Enter /share/apps/g16.b01_avx2/g16/l103.exe)

 GradGradGradGradGradGradGradGradGradGradGradGradGradGradGradGradGradGrad
 Berny optimization.
 FormGI is forming the generalized inverse of G from B-inverse, IUseBI=4.
 Internal  Forces:  Max     0.078205918 RMS     0.014478601
 Search for a local minimum.
 Step number   1 out of a maximum of  137
 All quantities printed in internal units (Hartrees-Bohrs-Radians)
 RMS Force = .14479D-01 SwitMx=.10000D-02 MixMth= 1
 Mixed Optimization -- RFO/linear search
 Second derivative matrix not updated -- first step.
 ITU=  0
     Eigenvalues ---    0.00562   0.00623   0.00797   0.01295   0.01972
     Eigenvalues ---    0.02054   0.02059   0.02087   0.02098   0.02131
     Eigenvalues ---    0.02147   0.02309   0.02760   0.03012   0.03424
     Eigenvalues ---    0.05411   0.05504   0.05798   0.06056   0.06128
     Eigenvalues ---    0.06247   0.07745   0.08370   0.09321   0.11618
     Eigenvalues ---    0.13027   0.13397   0.16000   0.16000   0.16000
     Eigenvalues ---    0.16000   0.16000   0.16000   0.16937   0.25000
     Eigenvalues ---    0.25000   0.25000   0.25000   0.25000   0.25000
     Eigenvalues ---    0.25000   0.25000   0.25000   0.30811   0.34732
     Eigenvalues ---    0.34774   0.34839   0.34970   0.35036   0.35076
     Eigenvalues ---    0.36028   0.40989   0.40993   0.41445   0.44208
     Eigenvalues ---    0.44513   0.44745   0.46010   0.53704   0.54820
     Eigenvalues ---    0.55021   0.55021   0.55021   0.55021   0.67129
     Eigenvalues ---    0.80346
 RFO step:  Lambda=-8.15490583D-02 EMin= 5.61857557D-03
 Linear search not attempted -- first point.
 Maximum step size (   0.300) exceeded in Quadratic search.
    -- Step size scaled by   0.609
 Iteration  1 RMS(Cart)=  0.06424254 RMS(Int)=  0.00167277
 Iteration  2 RMS(Cart)=  0.00214325 RMS(Int)=  0.00066098
 Iteration  3 RMS(Cart)=  0.00000429 RMS(Int)=  0.00066098
 Iteration  4 RMS(Cart)=  0.00000001 RMS(Int)=  0.00066098
 ITry= 1 IFail=0 DXMaxC= 1.92D-01 DCOld= 1.00D+10 DXMaxT= 3.00D-01 DXLimC= 3.00D+00 Rises=F
 Variable       Old X    -DE/DX   Delta X   Delta X   Delta X     New X
                                 (Linear)    (Quad)   (Total)
    R1        3.72154   0.03513   0.00000   0.15748   0.15755   3.87909
    R2        1.92345  -0.00387   0.00000  -0.00235  -0.00173   1.92171
    R3        2.33162   0.00472   0.00000   0.00257   0.00251   2.33413
    R4        3.85889   0.03531   0.00000   0.13851   0.13818   3.99707
    R5        2.86374  -0.01288   0.00000  -0.02013  -0.02013   2.84361
    R6        2.45708   0.07821   0.00000   0.06328   0.06328   2.52036
    R7        1.92273   0.00047   0.00000   0.00054   0.00054   1.92327
    R8        2.77338  -0.00641   0.00000  -0.00884  -0.00884   2.76454
    R9        2.05551   0.00177   0.00000   0.00249   0.00249   2.05800
   R10        2.05617   0.00216   0.00000   0.00305   0.00305   2.05922
   R11        2.05723   0.00363   0.00000   0.00513   0.00513   2.06236
   R12        2.06044   0.00343   0.00000   0.00486   0.00486   2.06530
   R13        2.05937  -0.00070   0.00000  -0.00099  -0.00099   2.05837
   R14        2.06112  -0.00435   0.00000  -0.00617  -0.00617   2.05495
   R15        2.65861  -0.02519   0.00000  -0.02916  -0.02916   2.62945
   R16        2.54585  -0.04075   0.00000  -0.03996  -0.03994   2.50591
   R17        2.55113  -0.02765   0.00000  -0.02666  -0.02666   2.52447
   R18        2.63821  -0.01532   0.00000  -0.01589  -0.01590   2.62231
   R19        2.55113  -0.02272   0.00000  -0.02190  -0.02190   2.52923
   R20        2.63801  -0.01687   0.00000  -0.01766  -0.01767   2.62034
   R21        2.70231  -0.05647   0.00000  -0.06999  -0.06999   2.63231
   R22        2.65877  -0.02588   0.00000  -0.03004  -0.03004   2.62873
   R23        2.55113  -0.02448   0.00000  -0.02360  -0.02360   2.52753
   R24        2.54622  -0.04034   0.00000  -0.03962  -0.03960   2.50662
   R25        2.55113  -0.02763   0.00000  -0.02664  -0.02664   2.52449
    A1        1.55319   0.01145   0.00000   0.03344   0.03334   1.58652
    A2        1.50188  -0.01182   0.00000  -0.03713  -0.03721   1.46467
    A3        1.40160   0.00834   0.00000   0.03735   0.03751   1.43912
    A4        2.41055  -0.01685   0.00000  -0.05634  -0.05757   2.35298
    A5        1.91485   0.03165   0.00000   0.10025   0.09907   2.01392
    A6        1.60408  -0.00383   0.00000   0.00211   0.00544   1.60951
    A7        1.75854   0.00840   0.00000   0.02479   0.02275   1.78129
    A8        1.95779  -0.01481   0.00000  -0.04391  -0.04455   1.91324
    A9        1.53715  -0.01273   0.00000  -0.03729  -0.03751   1.49964
   A10        1.86434   0.00888   0.00000   0.02635   0.02661   1.89094
   A11        1.92974   0.00185   0.00000   0.00077   0.00068   1.93043
   A12        2.00510   0.00702   0.00000   0.02841   0.02849   2.03359
   A13        2.11480   0.00325   0.00000  -0.00270  -0.00272   2.11208
   A14        1.95103  -0.00774   0.00000  -0.01574  -0.01586   1.93516
   A15        1.90794  -0.00027   0.00000  -0.00100  -0.00103   1.90691
   A16        1.88219   0.00053   0.00000   0.00074   0.00070   1.88289
   A17        1.92173   0.00950   0.00000   0.02489   0.02482   1.94656
   A18        1.91956  -0.00151   0.00000  -0.00576  -0.00576   1.91380
   A19        1.91066  -0.00379   0.00000  -0.00837  -0.00842   1.90224
   A20        1.92157  -0.00433   0.00000  -0.01023  -0.01030   1.91127
   A21        1.88970   0.00474   0.00000   0.01231   0.01229   1.90199
   A22        1.88754   0.00155   0.00000   0.00489   0.00483   1.89237
   A23        1.99478  -0.01182   0.00000  -0.03126  -0.03126   1.96352
   A24        1.88302  -0.00063   0.00000   0.00164   0.00156   1.88458
   A25        1.90243   0.00205   0.00000   0.00325   0.00328   1.90571
   A26        1.90337   0.00457   0.00000   0.01067   0.01064   1.91401
   A27        2.15518   0.00500   0.00000   0.00750   0.00752   2.16270
   A28        2.10831  -0.00762   0.00000  -0.01316  -0.01317   2.09514
   A29        2.01970   0.00262   0.00000   0.00566   0.00565   2.02534
   A30        2.06865  -0.00440   0.00000  -0.00559  -0.00560   2.06305
   A31        2.10074   0.00160   0.00000   0.00170   0.00170   2.10244
   A32        2.11379   0.00279   0.00000   0.00389   0.00389   2.11768
   A33        2.07309  -0.00468   0.00000  -0.00410  -0.00416   2.06893
   A34        2.10485   0.00756   0.00000   0.01164   0.01160   2.11645
   A35        2.10525  -0.00288   0.00000  -0.00756  -0.00759   2.09766
   A36        2.06831  -0.00341   0.00000  -0.00395  -0.00396   2.06435
   A37        2.11417  -0.00059   0.00000  -0.00225  -0.00224   2.11192
   A38        2.10071   0.00400   0.00000   0.00620   0.00620   2.10691
   A39        2.15543   0.00456   0.00000   0.00652   0.00654   2.16197
   A40        2.10824  -0.00719   0.00000  -0.01228  -0.01229   2.09595
   A41        2.01951   0.00263   0.00000   0.00576   0.00575   2.02526
   A42        2.04571   0.00294   0.00000  -0.00039  -0.00034   2.04537
   A43        2.19098  -0.02619   0.00000  -0.04813  -0.04813   2.14286
    D1        0.73138   0.01026   0.00000   0.02029   0.02077   0.75215
    D2       -0.41460  -0.00173   0.00000   0.00594   0.00556  -0.40904
    D3       -2.42951  -0.00598   0.00000  -0.01482  -0.01475  -2.44426
    D4        1.72720  -0.00323   0.00000  -0.01267  -0.01267   1.71453
    D5       -0.34445   0.00034   0.00000   0.00728   0.00677  -0.33768
    D6       -1.77486  -0.00894   0.00000  -0.05751  -0.05698  -1.83185
    D7        1.36673   0.00828   0.00000   0.03419   0.03766   1.40439
    D8        0.71045   0.00870   0.00000   0.01887   0.01929   0.72974
    D9        2.58963   0.01327   0.00000   0.03350   0.03350   2.62313
[...]
 0009601,-0.00008890,-0.00003641,-0.00002722,-0.00000187,-0.00004372,-0
 .00006820,-0.00003259,-0.00008214,0.00002614,0.00001411,-0.00001400,0.
 00006129,-0.00000538,0.00001753,-0.00002899,-0.00003169,0.00003138,-0.
 00149461,0.00296440,0.00246344,0.00001593,0.00002233,0.00073969,0.0004
 6741,0.00011018,0.00090773,-0.00016629,-0.00006762,-0.00002763,-0.0007
 4601,-0.00505753,-0.00800224,-0.06529333,-0.02079142,-0.01685600,0.184
 89242,-0.00023231,-0.00035261,0.00007397,0.00092924,-0.00388148,0.0011
 2953,-0.01179065,0.00047539,-0.01317436,0.00015880,0.00023795,-0.00030
 546,0.00006410,0.00005385,-0.00006204,-0.00009970,0.00009087,0.0000337
 1,0.00001685,-0.00000844,-0.00001404,-0.00000460,-0.00001082,0.0000027
 6,0.00006714,0.00001109,-0.00001929,0.00458138,0.00289596,-0.00189862,
 0.00024320,0.00011407,0.00109000,-0.00035487,0.00081867,-0.00095273,-0
 .00054152,0.00034822,-0.00038739,-0.01898915,0.05185125,-0.08808983,-0
 .00523896,-0.26937639,-0.05528995,-0.01979627,0.72071527,0.00031277,0.
 00059544,0.00019650,-0.02339377,0.01143011,0.00593897,0.03041362,-0.02
 168511,-0.08424416,-0.00124511,-0.00172905,0.00150199,-0.00046033,-0.0
 0034184,0.00006471,0.00029507,-0.00055274,-0.00057509,-0.00000548,0.00
 005617,0.00010193,0.00027652,0.00005103,0.00003654,-0.00044396,-0.0001
 5544,0.00027875,0.00491112,-0.00073189,0.00229511,-0.00056341,-0.00045
 965,0.00044095,-0.00066239,-0.00035097,0.00017111,-0.00036165,0.000303
 01,0.00079066,-0.00696578,-0.02542863,-0.03553546,-0.01725291,-0.14638
 121,-0.17340038,0.09141819,0.01160966,0.70935071,-0.00001214,-0.000006
 56,-0.00002263,0.00185371,-0.00026565,0.00176883,-0.00404863,0.0029696
 7,0.00315564,0.00008591,0.00014572,-0.00009672,0.00004260,0.00002525,0
 .00000241,-0.00002299,0.00004256,0.00004564,0.00000089,-0.00000629,-0.
 00000786,-0.00002967,-0.00000639,-0.00000543,0.00003502,0.00001656,-0.
 00002188,-0.00002386,-0.00048453,-0.00026180,-0.00001269,0.00005329,-0
 .00018633,-0.00002737,-0.00003102,-0.00010646,0.00004894,-0.00001889,0
 .00002743,-0.00306067,0.00866297,-0.01432633,0.00308120,0.00462050,0.0
 1734835,-0.06550675,0.01100524,-0.01982426,0.15565786,-0.00022987,-0.0
 0021209,0.00009444,0.00298043,-0.00308480,0.00056610,-0.00652362,0.004
 16477,0.00019415,0.00025765,0.00013896,-0.00019819,0.00005004,0.000026
 42,-0.00002789,-0.00011818,0.00010675,0.00005747,0.00001758,-0.0000100
 1,-0.00002963,-0.00001648,-0.00001238,0.00000793,0.00008014,0.00001497
 ,-0.00003979,0.00082243,-0.00067384,-0.00057347,-0.00001761,0.00000162
 ,-0.00023018,-0.00011872,-0.00008210,-0.00036623,0.00007208,-0.0000351
 8,0.00014126,0.00577287,-0.02153716,0.02701037,-0.00548229,-0.05485473
 ,-0.02934231,0.03024412,-0.28347794,0.13170149,-0.00481419,0.73788905,
 -0.00014406,-0.00010843,0.00003401,0.00494675,-0.00479899,-0.00088005,
 -0.01057809,0.01153920,0.00625379,0.00037413,0.00022714,-0.00021124,0.
 00005223,0.00002271,-0.00000333,-0.00008623,0.00012502,0.00008708,0.00
 001124,-0.00001840,-0.00002373,-0.00002294,-0.00000485,-0.00000266,0.0
 0009498,0.00002172,-0.00005308,0.00049410,-0.00061546,-0.00077307,0.00
 011071,-0.00000390,-0.00019684,-0.00009011,-0.00016611,-0.00040779,0.0
 0019361,-0.00016199,0.00022175,-0.01399524,0.03865812,-0.06878263,0.01
 771941,0.01583134,0.08158024,-0.02130226,0.04180397,-0.15563560,0.1189
 2419,0.01560389,0.70466740,0.00004124,0.00003068,-0.00000975,-0.000207
 22,0.00010378,0.00114989,-0.00040661,0.00069458,-0.00211836,-0.0000642
 3,-0.00006290,0.00004688,-0.00001752,-0.00001075,0.00000245,0.00002918
 ,-0.00002208,-0.00002106,-0.00000353,0.00000278,0.00000597,0.00001575,
 0.00000619,-0.00000089,-0.00001975,-0.00000944,0.00001097,-0.00000445,
 -0.00013346,0.00002258,0.00001135,-0.00000633,-0.00002971,-0.00000816,
 -0.00002329,0.00003368,0.00000835,0.00000992,0.00001768,-0.00441959,-0
 .00413663,0.01620189,-0.00299666,-0.00413152,-0.01475602,-0.00020103,0
 .01837796,-0.00423440,-0.07920869,-0.00844507,-0.05145032,0.18411355,-
 0.00024775,-0.00019725,0.00010838,0.00087584,-0.00026575,-0.00025287,-
 0.00138449,0.00090440,0.00173731,0.00020751,0.00012304,-0.00016280,0.0
 0003963,0.00002441,-0.00002077,-0.00011090,0.00007682,0.00004374,0.000
 01827,-0.00000917,-0.00002790,-0.00001880,-0.00001072,0.00000609,0.000
 06240,0.00001483,-0.00002851,0.00010016,-0.00009990,-0.00012998,0.0000
 1031,0.00002682,-0.00005197,-0.00002966,0.00003803,-0.00009569,-0.0000
 1991,0.00001945,-0.00002053,0.00471455,-0.10536181,0.01325575,-0.00618
 051,-0.01566683,-0.03394276,0.00690674,0.04041407,0.03304004,0.0105547
 4,-0.09960553,0.04997343,-0.00818922,0.73594070,0.00019806,0.00014796,
 -0.00004736,-0.00194067,0.00130407,0.00278481,0.00340873,-0.00341383,-
 0.00588241,-0.00031843,-0.00033979,0.00024556,-0.00008793,-0.00005695,
 0.00000636,0.00012695,-0.00010134,-0.00010655,-0.00001411,0.00002077,0
 .00003020,0.00006289,0.00001304,0.00000478,-0.00009775,-0.00004025,0.0
 0005500,-0.00021206,0.00023832,0.00049031,-0.00003799,-0.00003453,0.00
 012625,0.00010408,-0.00000299,0.00029341,-0.00002883,0.00001706,0.0000
 2357,0.01612647,-0.03042345,0.07224475,-0.01523527,-0.02161381,-0.0745
 2805,-0.00551464,0.09541897,-0.02443336,-0.04887476,-0.04764682,-0.317
 80453,0.11240544,0.01692226,0.71549169,-0.00005152,-0.00001500,0.00000
 991,0.00041712,-0.00027255,-0.00000519,-0.00090255,0.00062523,0.000931
 85,0.00006265,0.00003178,-0.00004028,0.00000815,0.00000448,0.00000085,
 -0.00002090,0.00002277,0.00001231,0.00000378,-0.00000224,-0.00000481,-
 0.00000555,-0.00000336,-0.00000145,0.00001636,0.00000452,-0.00000898,0
 .00005013,-0.00004889,-0.00005079,0.00000643,0.00000395,-0.00001985,-0
 .00001253,0.00000108,-0.00004072,0.00000634,-0.00000409,0.00000537,-0.
 06858091,0.03241189,-0.02751159,0.01242236,0.00601185,-0.00656905,-0.0
 0135141,0.00077773,0.00215761,0.01254282,-0.00580529,-0.00595054,-0.06
 717289,-0.02328945,-0.02647157,0.10318871,0.00014483,0.00012526,-0.000
 08138,-0.00091668,0.00019467,-0.00143734,0.00230618,-0.00083074,-0.000
 44127,-0.00009075,0.00001717,0.00006132,-0.00000040,0.00000170,0.00001
 706,0.00004761,-0.00004280,-0.00000275,-0.00001069,0.00000033,0.000012
 83,-0.00000975,0.00000516,-0.00000593,-0.00002323,0.00000289,0.0000078
 7,-0.00007206,0.00012060,0.00005074,-0.00000461,-0.00000841,0.00003036
 ,-0.00000773,-0.00000236,0.00001815,-0.00002035,0.00000684,-0.00002421
 ,0.02782303,-0.31377281,0.10517194,0.01929676,0.01934977,0.09720993,-0
 .00116946,-0.08419759,-0.00420973,-0.01949998,0.03143168,-0.09286811,-
 0.01845475,-0.28898365,-0.11562840,-0.01207852,0.79659178,-0.00018578,
 -0.00014761,0.00004782,0.00177704,-0.00091047,-0.00068259,-0.00329896,
 0.00265254,0.00411092,0.00025517,0.00019480,-0.00018068,0.00004983,0.0
 0003434,-0.00001036,-0.00010025,0.00008680,0.00006640,0.00001417,-0.00
 001316,-0.00002327,-0.00003508,-0.00001214,-0.00000114,0.00007231,0.00
 002338,-0.00003952,0.00017345,-0.00024029,-0.00029226,0.00002778,0.000
 02843,-0.00009605,-0.00005835,0.00000348,-0.00018924,0.00002366,-0.000
 01191,0.00000772,-0.02733759,0.12965429,-0.18369990,-0.00502926,0.0307
 0791,-0.01097745,0.00237172,-0.00427644,0.00737010,-0.00729831,-0.0267
 4595,-0.02287153,-0.02630007,-0.14021544,-0.20756349,0.06035528,0.0201
 1891,0.39045019,-0.00012612,-0.00000978,0.00008413,-0.08333738,0.04744
 252,0.03232546,-0.10601687,0.02883519,0.02295903,0.00014570,-0.0011551
 0,0.00090249,-0.00053119,-0.00036999,-0.00009515,-0.00032368,-0.000261
 15,-0.00034046,0.00000866,0.00004385,0.00005780,0.00042979,-0.00002289
 ,0.00007797,-0.00019022,-0.00020095,0.00023704,0.00664279,0.00189907,-
 0.00128260,0.00030515,-0.00011035,0.00134426,0.00019097,0.00010734,-0.
 00156338,0.00021874,-0.00065685,0.00019541,0.00630451,0.00062662,-0.00
 029285,0.00831023,-0.00468288,-0.00745945,-0.09142191,0.01927048,-0.04
 971027,0.00604171,0.00396883,-0.00816988,0.00618764,-0.00005532,-0.001
 41923,-0.00038319,0.00045894,-0.00050398,0.25766550,0.00064819,0.00057
 126,-0.00008695,0.04962899,0.00182928,-0.01440271,0.02686529,-0.064690
 19,-0.01335771,-0.00238798,-0.00072119,0.00203625,-0.00012783,-0.00001
 188,0.00008194,0.00036435,-0.00120152,-0.00028313,-0.00005341,0.000007
 62,0.00010479,-0.00041556,0.00008728,-0.00005726,-0.00056454,0.0002159
 2,0.00024330,0.00264796,0.00727911,-0.00489347,0.00068531,0.00025212,0
 .00128400,-0.00041474,0.00108393,0.00008442,-0.00026023,0.00038308,-0.
 00150961,0.00156752,-0.00589182,0.00351645,-0.00669188,0.00849001,-0.0
 3479032,0.01802779,-0.08401633,0.01877276,0.00718751,0.00273621,0.0304
 4553,-0.00093456,-0.00735069,0.00004089,-0.00030383,0.00222627,-0.0015
 0429,-0.09472788,0.12855185,0.00039237,0.00016467,-0.00026000,0.052943
 96,-0.02320448,0.02140262,-0.00210903,-0.00200366,-0.12194688,0.000519
 54,0.00170863,-0.00050155,0.00051683,0.00034254,0.00009205,0.00017955,
 0.00032097,0.00052227,-0.00006252,-0.00014642,0.00001507,-0.00054857,0
 .00005989,-0.00014434,0.00033881,0.00031971,-0.00029505,0.02725861,-0.
 01492385,-0.04333412,0.00123483,0.00009699,-0.00129988,-0.00354348,-0.
 00003675,-0.00810998,0.00194466,-0.00062653,-0.00070558,0.00318888,-0.
 00112625,0.01554861,-0.01659169,0.00092745,-0.05950925,-0.05680770,0.0
 1902035,-0.26728967,-0.01829368,0.00267557,-0.05155089,0.00067380,-0.0
 0213135,0.01312606,-0.00202193,0.00183020,-0.00900705,0.00600597,0.014
 71609,0.51033290,0.00037261,0.00031108,0.00020884,-0.00027814,0.000125
 49,-0.00032226,0.00091667,-0.00079077,0.00034167,-0.00066346,0.0000407
 3,0.00019292,-0.00003549,-0.00004542,0.00007569,0.00020766,-0.00017119
 ,0.00013265,-0.00007681,0.00001595,0.00005910,-0.00000579,0.00001247,-
 0.00002135,-0.00007771,-0.00000076,0.00004205,-0.00011029,0.00017691,0
 .00008750,0.00000797,0.00000852,0.00004613,0.00003263,0.00000664,0.000
 04486,-0.00001742,0.00000022,-0.00001617,0.00350829,0.01077280,-0.0037
 3503,-0.04180025,0.02904195,-0.01933750,0.00615367,-0.00178827,-0.0017
 4490,0.00553998,-0.00026399,-0.00276505,0.00044025,-0.00098894,0.00078
 465,0.00565233,0.00029416,-0.00292687,-0.00452510,-0.00039173,0.003032
 82,0.02876002,0.00129568,0.00038777,-0.00058458,0.00136735,-0.00049358
 ,-0.00098145,-0.00258707,0.00185872,0.00293515,-0.00077004,0.00032507,
 0.00019177,0.00007496,0.00007374,-0.00002718,0.00036679,-0.00016658,0.
 00017531,-0.00012876,0.00002985,0.00010711,-0.00008311,0.00003155,-0.0
 0002166,-0.00011087,0.00000300,0.00002626,0.00025962,-0.00036193,-0.00
 030487,0.00000721,0.00003905,-0.00011663,-0.00007735,-0.00002937,-0.00
 021544,-0.00000008,-0.00000683,0.00001393,0.00200776,-0.02685912,0.006
 83757,0.02771454,-0.31050215,0.10882629,0.00719328,-0.05218642,0.03026
 084,-0.00090956,0.00503076,-0.00274381,-0.00059176,0.00688570,-0.00222
 329,0.00047263,-0.00382731,0.00125022,0.00055618,0.00403196,-0.0035133
 2,-0.03728931,0.37924093,-0.00134038,-0.00077309,-0.00000752,-0.000265
 77,0.00022609,0.00019426,0.00077128,-0.00041713,-0.00057031,0.00185914
 ,-0.00049321,-0.00104246,-0.00004080,-0.00001483,-0.00004029,-0.000495
 67,0.00055919,-0.00012453,0.00015961,-0.00003685,-0.00014945,0.0000544
 3,-0.00005445,0.00004324,0.00027288,-0.00000932,-0.00012783,-0.0002333
 2,0.00010193,0.00014664,-0.00000943,-0.00003365,0.00001686,0.00003369,
 0.00001032,0.00010385,0.00004891,-0.00000460,0.00002791,-0.00470431,0.
 05079561,-0.01438644,-0.01989344,0.11176132,-0.12347352,0.00043769,-0.
 01333660,0.00829131,-0.00263615,-0.00155663,-0.00790776,0.00079743,-0.
 00415515,0.00349538,-0.00293749,0.00045034,-0.00797427,0.00220247,-0.0
 0124601,0.00699275,0.02462595,-0.14629865,0.13384430,0.00001697,0.0000
 2041,-0.00000368,-0.00067636,-0.00173945,0.00025389,0.00043714,-0.0006
 3573,0.00031087,-0.00002539,-0.00007271,0.00003022,-0.00001828,-0.0000
 1413,0.,0.00002255,-0.00000651,-0.00002175,-0.00000065,0.00000297,0.00
 000449,0.00001755,0.00000473,-0.00000154,-0.00001221,-0.00000801,0.000
 00721,0.00007705,0.00036738,0.00007984,0.00003082,-0.00002425,0.000153
 26,0.00002224,0.00001146,0.00003340,-0.00000997,-0.00001411,-0.0000007
 9,0.00050043,0.00081576,0.00110613,0.00555680,0.00062941,-0.00320706,0
 .00562010,0.00302858,0.00017137,-0.04207940,-0.02440859,-0.02171096,0.
 00320860,-0.01078112,-0.00533607,0.00568641,0.00038944,-0.00303518,-0.
 00428652,-0.00001769,0.00364477,0.00046508,-0.00017466,0.00035739,0.02
 989056,0.00023868,0.00018984,-0.00009257,-0.00271945,0.00144059,-0.000
 54585,0.00520775,-0.00357552,-0.00196632,-0.00024587,-0.00014091,0.000
 18292,-0.00004557,-0.00002568,0.00001952,0.00011134,-0.00009447,-0.000
 05245,-0.00001840,0.00001122,0.00002855,0.00001939,0.00001187,-0.00000
 563,-0.00007079,-0.00001543,0.00003438,-0.00050006,0.00031446,0.000337
 23,-0.00001833,-0.00002939,0.00012497,0.00006904,0.00000620,0.00023392
 ,-0.00002178,0.00001302,-0.00004855,0.00045240,0.00603206,0.00260816,0
 .00054927,0.00414822,0.00383283,-0.00849828,-0.05016298,-0.03626013,-0
 .02454904,-0.28826340,-0.12478260,-0.00154943,-0.02122762,-0.00793064,
 -0.00012756,-0.00342731,-0.00070835,-0.00083519,0.00699547,0.00507988,
 0.00024168,-0.00596620,0.00021407,0.03368742,0.35019421,0.00008419,0.0
 0005154,-0.00003937,-0.00105073,0.00386763,-0.00216946,0.00432607,-0.0
 0332341,-0.00071345,-0.00007286,0.00007233,0.00001689,0.00000967,0.000
 01583,0.00000721,0.00001171,-0.00003141,0.00001692,-0.00000846,0.00000
 123,0.00000657,-0.00002312,-0.00000478,-0.00000290,-0.00001462,0.00000
 486,0.00000495,-0.00045094,-0.00000103,0.00027859,-0.00004898,-0.00003
 235,0.00003614,0.00003418,0.00003098,0.00012624,-0.00002421,0.00002976
 ,-0.00008916,0.00054262,0.00453289,0.00408601,-0.00313073,0.00286513,-
 0.00705497,-0.00044800,0.00735298,0.00576341,-0.02192422,-0.12772650,-
 0.14625338,-0.00469446,-0.05150011,-0.01981986,-0.00288673,-0.00025361
 ,-0.00805202,0.00214077,0.00222926,0.00849493,0.00032814,-0.00105042,0
 .00183244,0.02619145,0.16687060,0.16393728,-0.00004037,-0.00003202,0.0
 0001686,0.00028195,0.00001189,-0.00037598,-0.00035780,-0.00000820,0.00
 072472,0.00004993,0.00003737,-0.00003375,0.00000860,0.00000594,-0.0000
 0329,-0.00002181,0.00001555,0.00001285,0.00000293,-0.00000203,-0.00000
 482,-0.00000737,-0.00000289,0.00000022,0.00001368,0.00000500,-0.000007
 09,0.00000071,-0.00003971,-0.00005465,-0.00000298,0.00000377,-0.000016
 02,-0.00000338,0.00000402,-0.00003110,0.00000730,-0.00000324,-0.000001
 94,0.00866316,-0.00025701,-0.00409173,0.00061516,-0.00019656,0.0017809
 5,0.00559596,-0.00238467,-0.00180214,0.00850320,0.01197359,-0.00800132
 ,-0.04805337,0.02716181,-0.02392171,-0.00073651,-0.00147896,0.00543379
 ,-0.00067689,0.00050528,-0.00074005,-0.00123026,0.00110641,-0.00033479
 ,-0.00318959,-0.00048486,0.00131772,0.03015679,0.00029951,0.00021321,-
 0.00012921,-0.00164851,0.00058006,0.00095091,0.00326679,-0.00155185,-0
 .00346537,-0.00030953,-0.00019288,0.00022579,-0.00005842,-0.00003402,0
 .00001905,0.00013388,-0.00010911,-0.00006568,-0.00002309,0.00001459,0.
 00003440,0.00003110,0.00001383,-0.00000275,-0.00008736,-0.00002396,0.0
 0004384,-0.00015843,0.00019355,0.00034860,-0.00001868,-0.00001897,0.00
 008505,0.00005353,-0.00000837,0.00018400,-0.00003940,0.00001794,0.0000
 0432,0.00161709,0.00348627,0.00849914,-0.00149675,0.00211612,-0.006414
 48,-0.00082651,0.00588369,-0.00525923,0.00424140,-0.03135883,0.0160824
 4,0.02894357,-0.24975846,0.12259892,0.00254486,-0.07739620,0.00443723,
 -0.00091892,0.00027359,0.00570019,0.00112620,-0.00861831,0.00469704,0.
 00004922,0.01117392,0.00131713,-0.03638564,0.34972064,-0.00017594,-0.0
 0013180,0.00006736,0.00151146,-0.00051579,-0.00072224,-0.00315128,0.00
 145312,0.00308103,0.00021937,0.00016903,-0.00016309,0.00004697,0.00002
 849,-0.00001101,-0.00008856,0.00007623,0.00005712,0.00001289,-0.000011
 36,-0.00002200,-0.00002886,-0.00000991,0.00000003,0.00006391,0.0000199
 4,-0.00003375,0.00013701,-0.00021009,-0.00030717,0.00001762,0.00001304
 ,-0.00008039,-0.00004766,-0.00000539,-0.00016433,0.00004613,-0.0000227
 5,0.00000457,-0.00373748,-0.00148402,-0.00991679,0.00172816,-0.0006130
 3,0.00834801,-0.00166483,-0.01263495,-0.00168962,-0.00911055,0.0563982
 9,-0.02862896,-0.02347641,0.11483729,-0.14768383,0.00561769,-0.0160050
 1,0.02467196,0.00099202,0.00188457,-0.00576448,-0.00032927,0.00460510,
 -0.00219592,0.00139834,-0.00206559,0.00282285,0.02968884,-0.14749476,0
 .15606099,-0.00004303,-0.00004265,0.00001342,0.00026508,-0.00012481,-0
 .00005361,-0.00064395,0.00033505,0.00067992,0.00004422,0.00004013,-0.0
 0003950,0.00000941,0.00000609,-0.00000595,-0.00002009,0.00001844,0.000
 01318,0.00000303,-0.00000205,-0.00000454,-0.00000557,-0.00000263,-0.00
 000023,0.00001501,0.00000382,-0.00000827,0.00003937,-0.00001469,-0.000
 08272,0.00001009,0.00000737,-0.00000213,-0.00000777,0.00000907,-0.0000
 3530,0.00000734,-0.00000465,-0.00000066,-0.04676861,-0.02042576,-0.022
 92148,0.00891568,-0.01056791,-0.00875256,0.00571842,0.00270028,-0.0012
 8551,0.00059899,0.00000415,0.00134565,0.00872777,0.00064409,-0.0037062
 6,-0.00084565,0.00307696,0.00555548,-0.00063232,-0.00083634,-0.0011567
 8,-0.00323646,0.00030016,0.00127069,-0.00125395,-0.00089233,-0.0002084
 7,0.00042096,-0.00033591,0.00033042,0.02868200,-0.00020698,-0.00017578
 ,0.00008913,0.00153177,-0.00043501,-0.00082612,-0.00310990,0.00128216,
 0.00317172,0.00022484,0.00019860,-0.00017633,0.00005229,0.00003274,-0.
 00001965,-0.00009735,0.00007600,0.00006108,0.00001467,-0.00001161,-0.0
 0002211,-0.00003346,-0.00001070,-0.00000098,0.00006964,0.00002280,-0.0
 0003699,0.00017492,-0.00016787,-0.00032111,0.00001850,0.00001975,-0.00
 006811,-0.00005215,0.00001604,-0.00017290,0.00002776,-0.00001168,-0.00
 001605,-0.02207583,-0.22684388,-0.13087825,-0.00229914,-0.02426987,-0.
 01593522,0.00133068,0.00376065,0.00572509,0.00106671,0.00166679,0.0059
 3813,-0.00146828,0.00406910,-0.00726616,-0.00096198,-0.07758493,-0.014
 40627,0.00079824,-0.00113133,-0.00525052,-0.00044442,0.01107971,-0.000
 38574,-0.00110979,-0.00760220,-0.00531853,0.00044515,-0.00461646,0.001
 71936,0.02610413,0.32063698,-0.00019587,-0.00016710,0.00008340,0.00182
 817,-0.00062709,-0.00048068,-0.00423114,0.00143839,0.00306457,0.000225
 68,0.00019297,-0.00016661,0.00005110,0.00003198,-0.00001762,-0.0000969
 5,0.00007870,0.00006244,0.00001412,-0.00001182,-0.00002179,-0.00003294
 ,-0.00001076,-0.00000080,0.00006938,0.00002298,-0.00003645,0.00034144,
 -0.00012553,-0.00039380,0.00002703,0.00001698,-0.00004448,-0.00006612,
 0.00002692,-0.00021519,0.00002943,-0.00001176,-0.00001719,-0.02329307,
 -0.12313540,-0.17203044,-0.00804467,-0.05588209,-0.03566114,-0.0010852
 6,0.01290580,0.00021058,0.00172488,0.00003264,0.00914280,-0.00427722,0
 .00281154,-0.01054869,0.00543011,0.00597809,0.02493570,0.00131241,-0.0
 0330878,-0.00680854,0.00119543,0.00285175,0.00301136,-0.00042559,-0.00
 510835,-0.00323587,0.00044442,-0.00239660,0.00226966,0.02905523,0.1643
 9653,0.18689878\\-0.00000156,0.00000074,0.00000591,-0.00000060,-0.0000
 0246,-0.00000359,-0.00000417,0.00000678,0.00001287,-0.00000347,-0.0000
 0066,-0.00000584,-0.00000121,0.00000061,-0.00000173,-0.00000481,0.0000
 0094,0.00000318,0.00000112,0.00000206,0.00000039,0.00000131,0.00000164
 ,0.00000030,0.00000031,0.00000250,0.00000073,0.00000182,-0.00000121,-0
 .00000093,0.00000385,-0.00000199,-0.00000136,0.00000350,0.,-0.00000113
 ,0.00000269,-0.00000129,-0.00000115,-0.00000171,-0.00000114,0.00000159
 ,-0.00000255,-0.00000119,-0.00000363,0.00000070,0.00000222,0.00000408,
 -0.00000113,-0.00000014,0.00000103,0.00000070,-0.00000310,-0.00000189,
 -0.00000106,0.00000270,0.00000044,0.00000754,-0.00000689,-0.00000798,-
 0.00000159,-0.00000065,-0.00000054,0.00000315,-0.00000088,-0.00000057,
 0.00000085,0.00000126,0.00000021,-0.00000367,0.00000013,-0.00000043\\\
 @


 SUPPORT THE RIGHT TO ARM BEARS!
 (ADD A CLAWS TO THE BILL OF RIGHTS)
 Job cpu time:       0 days  3 hours 25 minutes  3.4 seconds.
 Elapsed time:       0 days  0 hours 12 minutes 49.2 seconds.
 File lengths (MBytes):  RWF=    699 Int=      0 D2E=      0 Chk=     33 Scr=      1
 Normal termination of Gaussian 16 at Sun Jul  7 10:15:48 2024.
