 Entering Gaussian System, Link 0=g16
 Input=input.com
 Output=input.log
 Initial command:
 /share/apps/g16.b01_avx2/g16/l1.exe "/scratch/Gau-297362.inp" -scrdir="/scratch/"
 Entering Link 1 = /share/apps/g16.b01_avx2/g16/l1.exe PID=    297364.
  
 Copyright (c) 1988-2017, Gaussian, Inc.  All Rights Reserved.
  
 This is part of the Gaussian(R) 16 program.  It is based on
 the Gaussian(R) 09 system (copyright 2009, Gaussian, Inc.),
 the Gaussian(R) 03 system (copyright 2003, Gaussian, Inc.),
 the Gaussian(R) 98 system (copyright 1998, Gaussian, Inc.),
 the Gaussian(R) 94 system (copyright 1995, Gaussian, Inc.),
 the Gaussian 92(TM) system (copyright 1992, Gaussian, Inc.),
 the Gaussian 90(TM) system (copyright 1990, Gaussian, Inc.),
 the Gaussian 88(TM) system (copyright 1988, Gaussian, Inc.),
 the Gaussian 86(TM) system (copyright 1986, Carnegie Mellon
 University), and the Gaussian 82(TM) system (copyright 1983,
 Carnegie Mellon University). Gaussian is a federally registered
 trademark of Gaussian, Inc.
  
 This software contains proprietary and confidential information,
 including trade secrets, belonging to Gaussian, Inc.
  
 This software is provided under written license and may be
 used, copied, transmitted, or stored only in accord with that
 written license.
  
 The following legend is applicable only to US Government
 contracts under FAR:
  
                    RESTRICTED RIGHTS LEGEND
  
 Use, reproduction and disclosure by the US Government is
 subject to restrictions as set forth in subparagraphs (a)
 and (c) of the Commercial Computer Software - Restricted
 Rights clause in FAR 52.227-19.
  
 Gaussian, Inc.
 340 Quinnipiac St., Bldg. 40, Wallingford CT 06492
  
  
 ---------------------------------------------------------------
 Warning -- This program may not be used in any manner that
 competes with the business of Gaussian, Inc. or will provide
 assistance to any competitor of Gaussian, Inc.  The licensee
 of this program is prohibited from giving any competitor of
 Gaussian, Inc. access to this program.  By using this program,
 the user acknowledges that Gaussian, Inc. is engaged in the
 business of creating and licensing software in the field of
 computational chemistry and represents and warrants to the
 licensee that it is not a competitor of Gaussian, Inc. and that
 it will not use this program in any manner prohibited above.
 ---------------------------------------------------------------
  

 Cite this work as:
 Gaussian 16, Revision B.01,
 M. J. Frisch, G. W. Trucks, H. B. Schlegel, G. E. Scuseria, 
 M. A. Robb, J. R. Cheeseman, G. Scalmani, V. Barone, 
 G. A. Petersson, H. Nakatsuji, X. Li, M. Caricato, A. V. Marenich, 
 J. Bloino, B. G. Janesko, R. Gomperts, B. Mennucci, H. P. Hratchian, 
 J. V. Ortiz, A. F. Izmaylov, J. L. Sonnenberg, D. Williams-Young, 
 F. Ding, F. Lipparini, F. Egidi, J. Goings, B. Peng, A. Petrone, 
 T. Henderson, D. Ranasinghe, V. G. Zakrzewski, J. Gao, N. Rega, 
 G. Zheng, W. Liang, M. Hada, M. Ehara, K. Toyota, R. Fukuda, 
 J. Hasegawa, M. Ishida, T. Nakajima, Y. Honda, O. Kitao, H. Nakai, 
 T. Vreven, K. Throssell, J. A. Montgomery, Jr., J. E. Peralta, 
 F. Ogliaro, M. J. Bearpark, J. J. Heyd, E. N. Brothers, K. N. Kudin, 
 V. N. Staroverov, T. A. Keith, R. Kobayashi, J. Normand, 
 K. Raghavachari, A. P. Rendell, J. C. Burant, S. S. Iyengar, 
 J. Tomasi, M. Cossi, J. M. Millam, M. Klene, C. Adamo, R. Cammi, 
 J. W. Ochterski, R. L. Martin, K. Morokuma, O. Farkas, 
 J. B. Foresman, and D. J. Fox, Gaussian, Inc., Wallingford CT, 2016.
 
 ******************************************
 Gaussian 16:  ES64L-G16RevB.01 20-Dec-2017
                19-Aug-2024 
 ******************************************
 %nproc=24
 Will use up to   24 processors via shared memory.
 %mem=64GB
 ----------------------------------------------------------------------
 #P PBE1PBE/def2TZVP opt freq EmpiricalDispersion=GD3 Int=(grid=99590) 
 scrf=(iefpcm, solvent=water)
 ----------------------------------------------------------------------
 1/18=20,19=15,26=6,38=1/1,3;
 2/9=110,12=2,17=6,18=5,40=1/2;
 3/5=44,7=101,11=2,25=1,30=1,70=2201,71=1,72=1,74=-13,75=99590,124=31/1,2,3;
 4//1;
 5/5=2,38=5,53=1/2;
 6/7=2,8=2,9=2,10=2,28=1/1;
 7//1,2,3,16;
 1/18=20,19=15,26=6/3(2);
 2/9=110/2;
 99//99;
 2/9=110/2;
 3/5=44,7=101,11=2,25=1,30=1,70=2205,71=1,72=1,74=-13,75=99590,124=31/1,2,3;
 4/5=5,16=3,69=1/1;
 5/5=2,38=5,53=1/2;
 7//1,2,3,16;
 1/18=20,19=15,26=6/3(-5);
 2/9=110/2;
 6/7=2,8=2,9=2,10=2,19=2,28=1/1;
 99/9=1/99;
 Leave Link    1 at Mon Aug 19 18:20:43 2024, MaxMem=  8589934592 cpu:               0.9 elap:               0.0
 (Enter /share/apps/g16.b01_avx2/g16/l101.exe)
 ----------------------
 pfp_ester-ome reactant
 ----------------------
 Symbolic Z-matrix:
 Charge =  0 Multiplicity = 1
 O                     0.73523  -0.16783  -3.08985 
 C                     1.19232   0.83369  -2.48026 
 C                     2.46011   1.5379   -2.99833 
 O                     0.53451   1.31786  -1.30648 
 C                    -0.53677   0.7228   -0.86871 
 C                    -0.42797  -0.32773   0.05242 
 C                    -1.79925   1.13248  -1.3184 
 C                    -1.58166  -0.96857   0.52387 
 C                    -2.95293   0.49164  -0.84695 
 C                    -2.84414  -0.55888   0.07418 
 F                     0.78821  -0.72239   0.48561 
 F                    -1.90406   2.14448  -2.20574 
 F                    -1.47685  -1.98056   1.41121 
 F                    -4.16911   0.88631  -1.28015 
 F                    -3.95551  -1.17621   0.52834 
 H                     2.28835   1.8962   -3.99182 
 H                     3.27547   0.84506  -3.00503 
 O                     2.77719   2.63892  -2.14269 
 C                     3.88969   3.35758  -2.68194 
 H                     3.6254    3.7591   -3.63788 
 H                     4.15312   4.15605  -2.02017 
 H                     4.72297   2.69531  -2.79126 
 
 ITRead=  0  0  0  0  0  0  0  0  0  0  0  0  0  0  0  0  0  0  0  0
 ITRead=  0  0
 MicOpt= -1 -1 -1 -1 -1 -1 -1 -1 -1 -1 -1 -1 -1 -1 -1 -1 -1 -1 -1 -1
 MicOpt= -1 -1
 NAtoms=     22 NQM=       22 NQMF=       0 NMMI=      0 NMMIF=      0
                NMic=       0 NMicF=      0.
                    Isotopes and Nuclear Properties:
 (Nuclear quadrupole moments (NQMom) in fm**2, nuclear magnetic moments (NMagM)
  in nuclear magnetons)

  Atom         1           2           3           4           5           6           7           8           9          10
 IAtWgt=          16          12          12          16          12          12          12          12          12          12
 AtmWgt=  15.9949146  12.0000000  12.0000000  15.9949146  12.0000000  12.0000000  12.0000000  12.0000000  12.0000000  12.0000000
 NucSpn=           0           0           0           0           0           0           0           0           0           0
 AtZEff=  -0.0000000  -0.0000000  -0.0000000  -0.0000000  -0.0000000  -0.0000000  -0.0000000  -0.0000000  -0.0000000  -0.0000000
 NQMom=    0.0000000   0.0000000   0.0000000   0.0000000   0.0000000   0.0000000   0.0000000   0.0000000   0.0000000   0.0000000
 NMagM=    0.0000000   0.0000000   0.0000000   0.0000000   0.0000000   0.0000000   0.0000000   0.0000000   0.0000000   0.0000000
 AtZNuc=   8.0000000   6.0000000   6.0000000   8.0000000   6.0000000   6.0000000   6.0000000   6.0000000   6.0000000   6.0000000

  Atom        11          12          13          14          15          16          17          18          19          20
 IAtWgt=          19          19          19          19          19           1           1          16          12           1
 AtmWgt=  18.9984032  18.9984032  18.9984032  18.9984032  18.9984032   1.0078250   1.0078250  15.9949146  12.0000000   1.0078250
 NucSpn=           1           1           1           1           1           1           1           0           0           1
 AtZEff=  -0.0000000  -0.0000000  -0.0000000  -0.0000000  -0.0000000  -0.0000000  -0.0000000  -0.0000000  -0.0000000  -0.0000000
 NQMom=    0.0000000   0.0000000   0.0000000   0.0000000   0.0000000   0.0000000   0.0000000   0.0000000   0.0000000   0.0000000
 NMagM=    2.6288670   2.6288670   2.6288670   2.6288670   2.6288670   2.7928460   2.7928460   0.0000000   0.0000000   2.7928460
 AtZNuc=   9.0000000   9.0000000   9.0000000   9.0000000   9.0000000   1.0000000   1.0000000   8.0000000   6.0000000   1.0000000

  Atom        21          22
 IAtWgt=           1           1
 AtmWgt=   1.0078250   1.0078250
 NucSpn=           1           1
 AtZEff=  -0.0000000  -0.0000000
 NQMom=    0.0000000   0.0000000
 NMagM=    2.7928460   2.7928460
 AtZNuc=   1.0000000   1.0000000
 Leave Link  101 at Mon Aug 19 18:20:43 2024, MaxMem=  8589934592 cpu:               7.4 elap:               0.3
 (Enter /share/apps/g16.b01_avx2/g16/l103.exe)

 GradGradGradGradGradGradGradGradGradGradGradGradGradGradGradGradGradGrad
 Berny optimization.
 Initialization pass.
                           ----------------------------
                           !    Initial Parameters    !
                           ! (Angstroms and Degrees)  !
 --------------------------                            --------------------------
 ! Name  Definition              Value          Derivative Info.                !
 --------------------------------------------------------------------------------
 ! R1    R(1,2)                  1.2584         estimate D2E/DX2                !
 ! R2    R(2,3)                  1.54           estimate D2E/DX2                !
 ! R3    R(2,4)                  1.43           estimate D2E/DX2                !
 ! R4    R(3,16)                 1.07           estimate D2E/DX2                !
 ! R5    R(3,17)                 1.07           estimate D2E/DX2                !
 ! R6    R(3,18)                 1.43           estimate D2E/DX2                !
 ! R7    R(4,5)                  1.3013         estimate D2E/DX2                !
 ! R8    R(5,6)                  1.4014         estimate D2E/DX2                !
 ! R9    R(5,7)                  1.4014         estimate D2E/DX2                !
 ! R10   R(6,8)                  1.4014         estimate D2E/DX2                !
 ! R11   R(6,11)                 1.35           estimate D2E/DX2                !
 ! R12   R(7,9)                  1.4014         estimate D2E/DX2                !
 ! R13   R(7,12)                 1.35           estimate D2E/DX2                !
 ! R14   R(8,10)                 1.4014         estimate D2E/DX2                !
 ! R15   R(8,13)                 1.35           estimate D2E/DX2                !
 ! R16   R(9,10)                 1.4014         estimate D2E/DX2                !
 ! R17   R(9,14)                 1.35           estimate D2E/DX2                !
 ! R18   R(10,15)                1.35           estimate D2E/DX2                !
 ! R19   R(18,19)                1.43           estimate D2E/DX2                !
 ! R20   R(19,20)                1.07           estimate D2E/DX2                !
 ! R21   R(19,21)                1.07           estimate D2E/DX2                !
 ! R22   R(19,22)                1.07           estimate D2E/DX2                !
 ! A1    A(1,2,3)              120.0            estimate D2E/DX2                !
 ! A2    A(1,2,4)              120.0            estimate D2E/DX2                !
 ! A3    A(3,2,4)              120.0            estimate D2E/DX2                !
 ! A4    A(2,3,16)             109.4712         estimate D2E/DX2                !
 ! A5    A(2,3,17)             109.4712         estimate D2E/DX2                !
 ! A6    A(2,3,18)             109.4712         estimate D2E/DX2                !
 ! A7    A(16,3,17)            109.4712         estimate D2E/DX2                !
 ! A8    A(16,3,18)            109.4712         estimate D2E/DX2                !
 ! A9    A(17,3,18)            109.4712         estimate D2E/DX2                !
 ! A10   A(2,4,5)              120.0            estimate D2E/DX2                !
 ! A11   A(4,5,6)              120.0            estimate D2E/DX2                !
 ! A12   A(4,5,7)              120.0            estimate D2E/DX2                !
 ! A13   A(6,5,7)              120.0            estimate D2E/DX2                !
 ! A14   A(5,6,8)              120.0            estimate D2E/DX2                !
 ! A15   A(5,6,11)             120.0            estimate D2E/DX2                !
 ! A16   A(8,6,11)             120.0            estimate D2E/DX2                !
 ! A17   A(5,7,9)              120.0            estimate D2E/DX2                !
 ! A18   A(5,7,12)             120.0            estimate D2E/DX2                !
 ! A19   A(9,7,12)             120.0            estimate D2E/DX2                !
 ! A20   A(6,8,10)             120.0            estimate D2E/DX2                !
 ! A21   A(6,8,13)             120.0            estimate D2E/DX2                !
 ! A22   A(10,8,13)            120.0            estimate D2E/DX2                !
 ! A23   A(7,9,10)             120.0            estimate D2E/DX2                !
 ! A24   A(7,9,14)             120.0            estimate D2E/DX2                !
 ! A25   A(10,9,14)            120.0            estimate D2E/DX2                !
 ! A26   A(8,10,9)             120.0            estimate D2E/DX2                !
 ! A27   A(8,10,15)            120.0            estimate D2E/DX2                !
 ! A28   A(9,10,15)            120.0            estimate D2E/DX2                !
 ! A29   A(3,18,19)            109.5            estimate D2E/DX2                !
 ! A30   A(18,19,20)           109.4712         estimate D2E/DX2                !
 ! A31   A(18,19,21)           109.4712         estimate D2E/DX2                !
 ! A32   A(18,19,22)           109.4712         estimate D2E/DX2                !
 ! A33   A(20,19,21)           109.4713         estimate D2E/DX2                !
 ! A34   A(20,19,22)           109.4712         estimate D2E/DX2                !
 ! A35   A(21,19,22)           109.4712         estimate D2E/DX2                !
 ! D1    D(1,2,3,16)            60.0            estimate D2E/DX2                !
 ! D2    D(1,2,3,17)           -60.0            estimate D2E/DX2                !
 ! D3    D(1,2,3,18)          -180.0            estimate D2E/DX2                !
 ! D4    D(4,2,3,16)          -120.0            estimate D2E/DX2                !
 ! D5    D(4,2,3,17)           120.0            estimate D2E/DX2                !
 ! D6    D(4,2,3,18)             0.0            estimate D2E/DX2                !
 ! D7    D(1,2,4,5)              0.0001         estimate D2E/DX2                !
 ! D8    D(3,2,4,5)           -179.9999         estimate D2E/DX2                !
 ! D9    D(2,3,18,19)         -175.3885         estimate D2E/DX2                !
 ! D10   D(16,3,18,19)         -55.3885         estimate D2E/DX2                !
 ! D11   D(17,3,18,19)          64.6115         estimate D2E/DX2                !
 ! D12   D(2,4,5,6)             90.0            estimate D2E/DX2                !
 ! D13   D(2,4,5,7)            -89.9999         estimate D2E/DX2                !
 ! D14   D(4,5,6,8)            179.9998         estimate D2E/DX2                !
 ! D15   D(4,5,6,11)            -0.0001         estimate D2E/DX2                !
 ! D16   D(7,5,6,8)             -0.0002         estimate D2E/DX2                !
 ! D17   D(7,5,6,11)           179.9998         estimate D2E/DX2                !
 ! D18   D(4,5,7,9)           -180.0            estimate D2E/DX2                !
 ! D19   D(4,5,7,12)            -0.0001         estimate D2E/DX2                !
 ! D20   D(6,5,7,9)              0.0001         estimate D2E/DX2                !
 ! D21   D(6,5,7,12)           180.0            estimate D2E/DX2                !
 ! D22   D(5,6,8,10)             0.0002         estimate D2E/DX2                !
 ! D23   D(5,6,8,13)          -179.9998         estimate D2E/DX2                !
 ! D24   D(11,6,8,10)         -179.9999         estimate D2E/DX2                !
 ! D25   D(11,6,8,13)            0.0002         estimate D2E/DX2                !
 ! D26   D(5,7,9,10)             0.0001         estimate D2E/DX2                !
 ! D27   D(5,7,9,14)           180.0            estimate D2E/DX2                !
 ! D28   D(12,7,9,10)         -179.9998         estimate D2E/DX2                !
 ! D29   D(12,7,9,14)            0.0001         estimate D2E/DX2                !
 ! D30   D(6,8,10,9)             0.0            estimate D2E/DX2                !
 ! D31   D(6,8,10,15)         -179.9999         estimate D2E/DX2                !
 ! D32   D(13,8,10,9)         -180.0            estimate D2E/DX2                !
 ! D33   D(13,8,10,15)           0.0001         estimate D2E/DX2                !
 ! D34   D(7,9,10,8)            -0.0002         estimate D2E/DX2                !
 ! D35   D(7,9,10,15)          179.9998         estimate D2E/DX2                !
 ! D36   D(14,9,10,8)          180.0            estimate D2E/DX2                !
 ! D37   D(14,9,10,15)          -0.0001         estimate D2E/DX2                !
 ! D38   D(3,18,19,20)          62.4049         estimate D2E/DX2                !
 ! D39   D(3,18,19,21)        -177.5951         estimate D2E/DX2                !
 ! D40   D(3,18,19,22)         -57.5951         estimate D2E/DX2                !
 --------------------------------------------------------------------------------
 Trust Radius=3.00D-01 FncErr=5.00D-06 GrdErr=5.00D-06 EigMax=2.50D+02 EigMin=1.00D-04
 Number of steps in this run=    107 maximum allowed number of steps=    132.
 GradGradGradGradGradGradGradGradGradGradGradGradGradGradGradGradGradGrad

 Leave Link  103 at Mon Aug 19 18:20:43 2024, MaxMem=  8589934592 cpu:               0.3 elap:               0.0
 (Enter /share/apps/g16.b01_avx2/g16/l202.exe)
                          Input orientation:                          
 ---------------------------------------------------------------------
 Center     Atomic      Atomic             Coordinates (Angstroms)
 Number     Number       Type             X           Y           Z
 ---------------------------------------------------------------------
      1          8           0        0.735232   -0.167831   -3.089851
      2          6           0        1.192322    0.833687   -2.480260
      3          6           0        2.460109    1.537903   -2.998329
      4          8           0        0.534512    1.317860   -1.306479
      5          6           0       -0.536767    0.722795   -0.868710
      6          6           0       -0.427970   -0.327731    0.052420
      7          6           0       -1.799249    1.132482   -1.318397
      8          6           0       -1.581656   -0.968567    0.523866
      9          6           0       -2.952934    0.491645   -0.846953
     10          6           0       -2.844137   -0.558879    0.074180
     11          9           0        0.788207   -0.722394    0.485610
     12          9           0       -1.904056    2.144478   -2.205741
     13          9           0       -1.476849   -1.980560    1.411214
     14          9           0       -4.169111    0.886306   -1.280145
     15          9           0       -3.955508   -1.176210    0.528336
     16          1           0        2.288353    1.896203   -3.991819
     17          1           0        3.275474    0.845058   -3.005030
     18          8           0        2.777189    2.638922   -2.142691
     19          6           0        3.889685    3.357577   -2.681939
     20          1           0        3.625401    3.759101   -3.637884
     21          1           0        4.153117    4.156050   -2.020165
     22          1           0        4.722965    2.695313   -2.791260
 ---------------------------------------------------------------------
                    Distance matrix (angstroms):
                    1          2          3          4          5
     1  O    0.000000
     2  C    1.258400   0.000000
     3  C    2.427572   1.540000   0.000000
     4  O    2.329803   1.430000   2.572683   0.000000
     5  C    2.710105   2.366250   3.765760   1.301300   0.000000
     6  C    3.354471   3.223151   4.596592   2.341142   1.401400
     7  C    3.354469   3.223151   4.596593   2.341142   1.401400
     8  C    4.366703   4.468539   5.918117   3.613319   2.427296
     9  C    4.366700   4.468538   5.918117   3.613319   2.427296
    10  C    4.793318   4.975682   6.478567   4.104100   2.802800
    11  F    3.618601   3.373586   4.476833   2.727376   2.382921
    12  F    3.618600   3.373587   4.476836   2.727376   2.382921
    13  F    5.332811   5.494363   6.879193   4.723452   3.659226
    14  F    5.332806   5.494361   6.879193   4.723452   3.659226
    15  F    6.009256   6.292177   7.807939   5.454100   4.152800
    16  H    2.736049   2.148263   1.070000   3.259062   4.371727
    17  H    2.736049   2.148263   1.070000   3.259062   4.371726
    18  O    3.597856   2.425826   1.430000   2.733873   4.034461
    19  C    4.748207   3.699522   2.335595   4.160472   5.461076
    20  H    4.906548   3.977187   2.588562   4.576975   5.849027
    21  H    5.614456   4.473935   3.267686   4.653920   5.925209
    22  H    4.918208   4.003476   2.550097   4.652429   5.937324
                    6          7          8          9         10
     6  C    0.000000
     7  C    2.427296   0.000000
     8  C    1.401400   2.802800   0.000000
     9  C    2.802800   1.401400   2.427296   0.000000
    10  C    2.427296   2.427296   1.401400   1.401400   0.000000
    11  F    1.350000   3.659226   2.382921   4.152800   3.659226
    12  F    3.659226   1.350000   4.152800   2.382921   3.659226
    13  F    2.382921   4.152800   1.350000   3.659226   2.382921
    14  F    4.152800   2.382921   3.659226   1.350000   2.382921
    15  F    3.659226   3.659226   2.382921   2.382921   1.350000
    16  H    5.355386   4.943576   6.601157   6.271687   6.993013
    17  H    4.943574   5.355385   6.271686   6.601156   6.993012
    18  O    4.888005   4.888006   6.254921   6.254922   6.836648
    19  C    6.300822   6.258935   7.676475   7.642132   8.263122
    20  H    6.837423   6.458016   8.172175   7.857484   8.618544
    21  H    6.736932   6.713054   8.100704   8.080857   8.693584
    22  H    6.614941   6.866662   8.010139   8.219241   8.721328
                   11         12         13         14         15
    11  F    0.000000
    12  F    4.765565   0.000000
    13  F    2.751400   5.502800   0.000000
    14  F    5.502800   2.751400   4.765565   0.000000
    15  F    4.765565   4.765565   2.751400   2.751400   0.000000
    16  H    5.399524   4.563770   7.641910   7.076150   8.298031
    17  H    4.563767   5.399526   7.076149   7.641909   8.298030
    18  O    4.707703   4.707707   7.215726   7.215728   8.186503
    19  C    6.024840   5.938502   8.605190   8.544964   9.612915
    20  H    6.718383   5.935733   9.190759   8.635178   9.959160
    21  H    6.434341   6.385154   9.007156   8.972086  10.033825
    22  H    6.156373   6.675602   8.829625   9.199185  10.065998
                   16         17         18         19         20
    16  H    0.000000
    17  H    1.747303   0.000000
    18  O    2.051796   2.051796   0.000000
    19  C    2.532916   2.606606   1.430000   0.000000
    20  H    2.320206   3.002433   2.051796   1.070000   0.000000
    21  H    3.531525   3.564111   2.051796   1.070000   1.747303
    22  H    2.829710   2.358893   2.051796   1.070000   1.747303
                   21         22
    21  H    0.000000
    22  H    1.747303   0.000000
 Stoichiometry    C9H5F5O3
 Framework group  C1[X(C9H5F5O3)]
 Deg. of freedom    60
 Full point group                 C1      NOp   1
 Largest Abelian subgroup         C1      NOp   1
 Largest concise Abelian subgroup C1      NOp   1
                         Standard orientation:                         
 ---------------------------------------------------------------------
 Center     Atomic      Atomic             Coordinates (Angstroms)
 Number     Number       Type             X           Y           Z
 ---------------------------------------------------------------------
      1          8           0       -1.485010   -0.028509    1.946723
      2          6           0       -2.029501   -0.027661    0.812220
      3          6           0       -3.564996   -0.039070    0.695064
      4          8           0       -1.222425   -0.016103   -0.368202
      5          6           0        0.075068   -0.006465   -0.269205
      6          6           0        0.783149   -1.214874   -0.221334
      7          6           0        0.764288    1.212325   -0.210463
      8          6           0        2.180449   -1.204493   -0.114725
      9          6           0        2.161588    1.222705   -0.103852
     10          6           0        2.869669    0.014296   -0.055985
     11          9           0        0.119207   -2.388961   -0.277917
     12          9           0        0.082178    2.376412   -0.256579
     13          9           0        2.862559   -2.368581   -0.068614
     14          9           0        2.825529    2.396792   -0.047265
     15          9           0        4.215720    0.024296    0.046712
     16          1           0       -3.965763    0.829354    1.174778
     17          1           0       -3.952184   -0.917878    1.166955
     18          8           0       -3.937751   -0.035786   -0.685495
     19          6           0       -5.360143    0.062033   -0.795651
     20          1           0       -5.687821    0.988352   -0.372023
     21          1           0       -5.641564    0.022251   -1.827213
     22          1           0       -5.815349   -0.751310   -0.270142
 ---------------------------------------------------------------------
 Rotational constants (GHZ):           0.8305299           0.2585842           0.2144506
 Leave Link  202 at Mon Aug 19 18:20:43 2024, MaxMem=  8589934592 cpu:               0.2 elap:               0.0
 (Enter /share/apps/g16.b01_avx2/g16/l301.exe)
 Standard basis: def2TZVP (5D, 7F)
 Ernie: Thresh=  0.10000D-02 Tol=  0.10000D-05 Strict=F.
 There are   642 symmetry adapted cartesian basis functions of A   symmetry.
 There are   557 symmetry adapted basis functions of A   symmetry.
   557 basis functions,   907 primitive gaussians,   642 cartesian basis functions
    64 alpha electrons       64 beta electrons
       nuclear repulsion energy      1263.0756268174 Hartrees.
 IExCor= 1009 DFT=T Ex+Corr=PBE1PBE ExCW=0 ScaHFX=  0.250000
 ScaDFX=  0.750000  0.750000  1.000000  1.000000 ScalE2=  1.000000  1.000000
 IRadAn=  99590 IRanWt=     -1 IRanGd=            0 ICorTp=0 IEmpDi=131
 NAtoms=   22 NActive=   22 NUniq=   22 SFac= 1.00D+00 NAtFMM=   60 NAOKFM=F Big=F
 Integral buffers will be    131072 words long.
 Raffenetti 2 integral format.
 Two-electron integral symmetry is turned on.
 R6Disp:  Grimme-D3 Dispersion energy=       -0.0109644999 Hartrees.
 Nuclear repulsion after empirical dispersion term =     1263.0646623175 Hartrees.
 ------------------------------------------------------------------------------
 Polarizable Continuum Model (PCM)
 =================================
 Model                : PCM.
 Atomic radii         : UFF (Universal Force Field).
 Polarization charges : Total charges.
 Charge compensation  : None.
 Solution method      : On-the-fly selection.
 Cavity type          : Scaled VdW (van der Waals Surface) (Alpha=1.100).
 Cavity algorithm     : GePol (No added spheres)
                        Default sphere list used, NSphG=   22.
                        Lebedev-Laikov grids with approx.  5.0 points / Ang**2.
                        Smoothing algorithm: York/Karplus (Gamma=1.0000).
                        Polarization charges: spherical gaussians, with
                                              point-specific exponents (IZeta= 3).
                        Self-potential: point-specific (ISelfS= 7).
                        Self-field    : sphere-specific E.n sum rule (ISelfD= 2).
 1st derivatives      : Analytical E(r).r(x)/FMM algorithm (CHGder, D1EAlg=3).
                        Cavity 1st derivative terms included.
 Solvent              : Water, Eps=  78.355300 Eps(inf)=   1.777849
 ------------------------------------------------------------------------------
 GePol: Number of generator spheres                  =      22
 GePol: Total number of spheres                      =      22
 GePol: Number of exposed spheres                    =      22 (100.00%)
 GePol: Number of points                             =    2186
 GePol: Average weight of points                     =       0.13
 GePol: Minimum weight of points                     =   0.43D-08
 GePol: Maximum weight of points                     =    0.20543
 GePol: Number of points with low weight             =      92
 GePol: Fraction of low-weight points (<1% of avg)   =       4.21%
 GePol: Cavity surface area                          =    276.620 Ang**2
 GePol: Cavity volume                                =    278.032 Ang**3
 Leave Link  301 at Mon Aug 19 18:20:44 2024, MaxMem=  8589934592 cpu:               1.7 elap:               0.1
 (Enter /share/apps/g16.b01_avx2/g16/l302.exe)
 NPDir=0 NMtPBC=     1 NCelOv=     1 NCel=       1 NClECP=     1 NCelD=      1
         NCelK=      1 NCelE2=     1 NClLst=     1 CellRange=     0.0.
 One-electron integrals computed using PRISM.
 One-electron integral symmetry used in STVInt
   1 Symmetry operations used in ECPInt.
 ECPInt:  NShTT=   21528 NPrTT=   69024 LenC2=   18389 LenP2D=   41971.
 LDataN:  DoStor=T MaxTD1= 6 Len=  172
 NBasis=   557 RedAO= T EigKep=  1.78D-05  NBF=   557
 NBsUse=   557 1.00D-06 EigRej= -1.00D+00 NBFU=   557
 Precomputing XC quadrature grid using
 IXCGrd= 4 IRadAn=       99590 IRanWt=          -1 IRanGd=           0 AccXCQ= 0.00D+00.
 Generated NRdTot=       0 NPtTot=           0 NUsed=           0 NTot=          32
 NSgBfM=   630   630   630   630   630 MxSgAt=    22 MxSgA2=    22.
 Leave Link  302 at Mon Aug 19 18:20:44 2024, MaxMem=  8589934592 cpu:               9.1 elap:               0.4
 (Enter /share/apps/g16.b01_avx2/g16/l303.exe)
 DipDrv:  MaxL=1.
 Leave Link  303 at Mon Aug 19 18:20:45 2024, MaxMem=  8589934592 cpu:               1.3 elap:               0.1
 (Enter /share/apps/g16.b01_avx2/g16/l401.exe)
 ExpMin= 9.52D-02 ExpMax= 3.55D+04 ExpMxC= 1.21D+03 IAcc=4 IRadAn=    199590 AccDes= 0.00D+00
 Harris functional with IExCor= 1009 and IRadAn=  199590 diagonalized for initial guess.
 HarFok:  IExCor= 1009 AccDes= 0.00D+00 IRadAn=    199590 IDoV= 1 UseB2=F ITyADJ=14
 ICtDFT=  3500011 ScaDFX=  1.000000  1.000000  1.000000  1.000000
 FoFCou: FMM=F IPFlag=           0 FMFlag=      100000 FMFlg1=           0
         NFxFlg=           0 DoJE=T BraDBF=F KetDBF=T FulRan=T
         wScrn=  0.000000 ICntrl=       500 IOpCl=  0 I1Cent=   200000004 NGrid=           0
         NMat0=    1 NMatS0=      1 NMatT0=    0 NMatD0=    1 NMtDS0=    0 NMtDT0=    0
 Petite list used in FoFCou.
 Harris En= -1070.17290003668    
 JPrj=0 DoOrth=F DoCkMO=F.
 Leave Link  401 at Mon Aug 19 18:20:47 2024, MaxMem=  8589934592 cpu:              50.5 elap:               2.1
 (Enter /share/apps/g16.b01_avx2/g16/l502.exe)
 Integral symmetry usage will be decided dynamically.
 Closed shell SCF:
 Using DIIS extrapolation, IDIIS=  1040.
 NGot=  8589934592 LenX=  8589089392 LenY=  8588676586
 Requested convergence on RMS density matrix=1.00D-08 within 128 cycles.
 Requested convergence on MAX density matrix=1.00D-06.
 Requested convergence on             energy=1.00D-06.
 No special actions if energy rises.
 Fock matrices will be formed incrementally for  20 cycles.

 Cycle   1  Pass 1  IDiag  1:
 FoFJK:  IHMeth= 1 ICntrl=       0 DoSepK=F KAlg= 0 I1Cent=           0 FoldK=F
 IRaf= 790000000 NMat=       1 IRICut=       1 DoRegI=T DoRafI=F ISym2E= 0 IDoP0=0 IntGTp=1.
 FoFCou: FMM=F IPFlag=           0 FMFlag=      100000 FMFlg1=           0
         NFxFlg=           0 DoJE=F BraDBF=F KetDBF=F FulRan=T
         wScrn=  0.000000 ICntrl=         0 IOpCl=  0 I1Cent=           0 NGrid=           0
         NMat0=    1 NMatS0=      1 NMatT0=    0 NMatD0=    1 NMtDS0=    0 NMtDT0=    0
 Symmetry not used in FoFCou.
 Inv3:  Mode=1 IEnd=    14335788.
 Iteration    1 A*A^-1 deviation from unit magnitude is 3.77D-15 for   1494.
 Iteration    1 A*A^-1 deviation from orthogonality  is 1.75D-15 for   1715    259.
 Iteration    1 A^-1*A deviation from unit magnitude is 3.55D-15 for   1494.
 Iteration    1 A^-1*A deviation from orthogonality  is 4.53D-15 for   1574    637.
 E= -1069.92402250684    
 DIIS: error= 2.33D-02 at cycle   1 NSaved=   1.
 NSaved= 1 IEnMin= 1 EnMin= -1069.92402250684     IErMin= 1 ErrMin= 2.33D-02
 ErrMax= 2.33D-02  0.00D+00 EMaxC= 1.00D-01 BMatC= 2.84D-01 BMatP= 2.84D-01
 IDIUse=3 WtCom= 7.67D-01 WtEn= 2.33D-01
 Coeff-Com:  0.100D+01
 Coeff-En:   0.100D+01
 Coeff:      0.100D+01
 Gap=     0.215 Goal=   None    Shift=    0.000
 GapD=    0.215 DampG=1.000 DampE=0.500 DampFc=0.5000 IDamp=-1.
 Damping current iteration by 5.00D-01
 RMSDP=1.48D-03 MaxDP=1.11D-01              OVMax= 2.52D-01

 Cycle   2  Pass 1  IDiag  1:
 RMSU=  7.41D-04    CP:  9.94D-01
 E= -1069.97778444719     Delta-E=       -0.053761940346 Rises=F Damp=T
 DIIS: error= 6.70D-03 at cycle   2 NSaved=   2.
 NSaved= 2 IEnMin= 2 EnMin= -1069.97778444719     IErMin= 2 ErrMin= 6.70D-03
 ErrMax= 6.70D-03  0.00D+00 EMaxC= 1.00D-01 BMatC= 4.93D-02 BMatP= 2.84D-01
 IDIUse=3 WtCom= 9.33D-01 WtEn= 6.70D-02
 Coeff-Com:  0.158D+00 0.842D+00
 Coeff-En:   0.317D+00 0.683D+00
 Coeff:      0.169D+00 0.831D+00
 Gap=     0.234 Goal=   None    Shift=    0.000
 RMSDP=6.16D-04 MaxDP=4.10D-02 DE=-5.38D-02 OVMax= 1.55D-01

 Cycle   3  Pass 1  IDiag  1:
 RMSU=  5.92D-04    CP:  9.83D-01  8.06D-01
 E= -1070.07500664548     Delta-E=       -0.097222198289 Rises=F Damp=F
 DIIS: error= 8.66D-03 at cycle   3 NSaved=   3.
 NSaved= 3 IEnMin= 3 EnMin= -1070.07500664548     IErMin= 2 ErrMin= 6.70D-03
 ErrMax= 8.66D-03  0.00D+00 EMaxC= 1.00D-01 BMatC= 4.91D-02 BMatP= 4.93D-02
 IDIUse=3 WtCom= 9.13D-01 WtEn= 8.66D-02
 Coeff-Com: -0.390D-01 0.510D+00 0.529D+00
 Coeff-En:   0.000D+00 0.000D+00 0.100D+01
 Coeff:     -0.357D-01 0.465D+00 0.570D+00
 Gap=     0.239 Goal=   None    Shift=    0.000
 RMSDP=3.52D-04 MaxDP=3.34D-02 DE=-9.72D-02 OVMax= 9.33D-02

 Cycle   4  Pass 1  IDiag  1:
 RMSU=  3.17D-04    CP:  9.81D-01  8.66D-01  7.54D-01
 E= -1070.10587523584     Delta-E=       -0.030868590364 Rises=F Damp=F
 DIIS: error= 3.62D-03 at cycle   4 NSaved=   4.
 NSaved= 4 IEnMin= 4 EnMin= -1070.10587523584     IErMin= 4 ErrMin= 3.62D-03
 ErrMax= 3.62D-03  0.00D+00 EMaxC= 1.00D-01 BMatC= 8.07D-03 BMatP= 4.91D-02
 IDIUse=3 WtCom= 9.64D-01 WtEn= 3.62D-02
 Coeff-Com: -0.336D-01 0.148D+00 0.334D+00 0.551D+00
 Coeff-En:   0.000D+00 0.000D+00 0.154D+00 0.846D+00
 Coeff:     -0.324D-01 0.143D+00 0.327D+00 0.562D+00
 Gap=     0.238 Goal=   None    Shift=    0.000
 RMSDP=1.29D-04 MaxDP=8.91D-03 DE=-3.09D-02 OVMax= 2.40D-02

 Cycle   5  Pass 1  IDiag  1:
 RMSU=  6.57D-05    CP:  9.81D-01  8.70D-01  8.56D-01  7.04D-01
 E= -1070.11135624291     Delta-E=       -0.005481007070 Rises=F Damp=F
 DIIS: error= 7.00D-04 at cycle   5 NSaved=   5.
 NSaved= 5 IEnMin= 5 EnMin= -1070.11135624291     IErMin= 5 ErrMin= 7.00D-04
 ErrMax= 7.00D-04  0.00D+00 EMaxC= 1.00D-01 BMatC= 6.88D-04 BMatP= 8.07D-03
 IDIUse=3 WtCom= 9.93D-01 WtEn= 7.00D-03
 Coeff-Com: -0.138D-01 0.372D-01 0.134D+00 0.326D+00 0.517D+00
 Coeff-En:   0.000D+00 0.000D+00 0.000D+00 0.273D-01 0.973D+00
 Coeff:     -0.137D-01 0.370D-01 0.133D+00 0.324D+00 0.520D+00
 Gap=     0.237 Goal=   None    Shift=    0.000
 RMSDP=3.56D-05 MaxDP=2.61D-03 DE=-5.48D-03 OVMax= 6.44D-03

 Cycle   6  Pass 1  IDiag  1:
 RMSU=  1.63D-05    CP:  9.81D-01  8.73D-01  8.41D-01  7.42D-01  5.77D-01
 E= -1070.11187726544     Delta-E=       -0.000521022529 Rises=F Damp=F
 DIIS: error= 2.71D-04 at cycle   6 NSaved=   6.
 NSaved= 6 IEnMin= 6 EnMin= -1070.11187726544     IErMin= 6 ErrMin= 2.71D-04
 ErrMax= 2.71D-04  0.00D+00 EMaxC= 1.00D-01 BMatC= 2.73D-05 BMatP= 6.88D-04
 IDIUse=3 WtCom= 9.97D-01 WtEn= 2.71D-03
 Coeff-Com: -0.427D-02 0.656D-02 0.368D-01 0.107D+00 0.246D+00 0.608D+00
 Coeff-En:   0.000D+00 0.000D+00 0.000D+00 0.000D+00 0.000D+00 0.100D+01
 Coeff:     -0.426D-02 0.654D-02 0.367D-01 0.107D+00 0.245D+00 0.609D+00
 Gap=     0.238 Goal=   None    Shift=    0.000
 RMSDP=8.78D-06 MaxDP=5.49D-04 DE=-5.21D-04 OVMax= 1.36D-03

 Cycle   7  Pass 1  IDiag  1:
 RMSU=  6.51D-06    CP:  9.81D-01  8.75D-01  8.39D-01  7.37D-01  6.13D-01
                    CP:  7.06D-01
 E= -1070.11189873169     Delta-E=       -0.000021466246 Rises=F Damp=F
 DIIS: error= 2.97D-05 at cycle   7 NSaved=   7.
 NSaved= 7 IEnMin= 7 EnMin= -1070.11189873169     IErMin= 7 ErrMin= 2.97D-05
 ErrMax= 2.97D-05  0.00D+00 EMaxC= 1.00D-01 BMatC= 1.37D-06 BMatP= 2.73D-05
 IDIUse=1 WtCom= 1.00D+00 WtEn= 0.00D+00
 Coeff-Com: -0.836D-03 0.511D-03 0.621D-02 0.208D-01 0.675D-01 0.250D+00
 Coeff-Com:  0.656D+00
 Coeff:     -0.836D-03 0.511D-03 0.621D-02 0.208D-01 0.675D-01 0.250D+00
 Coeff:      0.656D+00
 Gap=     0.237 Goal=   None    Shift=    0.000
 RMSDP=2.38D-06 MaxDP=1.50D-04 DE=-2.15D-05 OVMax= 3.93D-04

 Cycle   8  Pass 1  IDiag  1:
 RMSU=  1.54D-06    CP:  9.81D-01  8.74D-01  8.39D-01  7.38D-01  6.12D-01
                    CP:  7.63D-01  7.86D-01
 E= -1070.11189976401     Delta-E=       -0.000001032322 Rises=F Damp=F
 DIIS: error= 1.69D-05 at cycle   8 NSaved=   8.
 NSaved= 8 IEnMin= 8 EnMin= -1070.11189976401     IErMin= 8 ErrMin= 1.69D-05
 ErrMax= 1.69D-05  0.00D+00 EMaxC= 1.00D-01 BMatC= 2.04D-07 BMatP= 1.37D-06
 IDIUse=1 WtCom= 1.00D+00 WtEn= 0.00D+00
 Coeff-Com: -0.675D-04-0.245D-03 0.206D-03 0.128D-02 0.141D-01 0.729D-01
 Coeff-Com:  0.321D+00 0.591D+00
 Coeff:     -0.675D-04-0.245D-03 0.206D-03 0.128D-02 0.141D-01 0.729D-01
 Coeff:      0.321D+00 0.591D+00
 Gap=     0.237 Goal=   None    Shift=    0.000
 RMSDP=7.68D-07 MaxDP=4.63D-05 DE=-1.03D-06 OVMax= 1.85D-04

 Cycle   9  Pass 1  IDiag  1:
 RMSU=  5.24D-07    CP:  9.81D-01  8.74D-01  8.39D-01  7.38D-01  6.15D-01
                    CP:  7.63D-01  8.43D-01  7.67D-01
 E= -1070.11189992676     Delta-E=       -0.000000162752 Rises=F Damp=F
 DIIS: error= 5.10D-06 at cycle   9 NSaved=   9.
 NSaved= 9 IEnMin= 9 EnMin= -1070.11189992676     IErMin= 9 ErrMin= 5.10D-06
 ErrMax= 5.10D-06  0.00D+00 EMaxC= 1.00D-01 BMatC= 2.79D-08 BMatP= 2.04D-07
 IDIUse=1 WtCom= 1.00D+00 WtEn= 0.00D+00
 Coeff-Com:  0.606D-04-0.186D-03-0.591D-03-0.189D-02-0.111D-02 0.393D-02
 Coeff-Com:  0.713D-01 0.312D+00 0.617D+00
 Coeff:      0.606D-04-0.186D-03-0.591D-03-0.189D-02-0.111D-02 0.393D-02
 Coeff:      0.713D-01 0.312D+00 0.617D+00
 Gap=     0.237 Goal=   None    Shift=    0.000
 RMSDP=2.38D-07 MaxDP=1.19D-05 DE=-1.63D-07 OVMax= 4.01D-05

 Cycle  10  Pass 1  IDiag  1:
 RMSU=  1.21D-07    CP:  9.81D-01  8.74D-01  8.39D-01  7.38D-01  6.15D-01
                    CP:  7.65D-01  8.53D-01  8.22D-01  7.11D-01
 E= -1070.11189994917     Delta-E=       -0.000000022405 Rises=F Damp=F
 DIIS: error= 7.84D-07 at cycle  10 NSaved=  10.
 NSaved=10 IEnMin=10 EnMin= -1070.11189994917     IErMin=10 ErrMin= 7.84D-07
 ErrMax= 7.84D-07  0.00D+00 EMaxC= 1.00D-01 BMatC= 6.14D-10 BMatP= 2.79D-08
 IDIUse=1 WtCom= 1.00D+00 WtEn= 0.00D+00
 Coeff-Com:  0.257D-04-0.572D-04-0.238D-03-0.786D-03-0.114D-02-0.246D-02
 Coeff-Com:  0.937D-02 0.856D-01 0.217D+00 0.692D+00
 Coeff:      0.257D-04-0.572D-04-0.238D-03-0.786D-03-0.114D-02-0.246D-02
 Coeff:      0.937D-02 0.856D-01 0.217D+00 0.692D+00
 Gap=     0.237 Goal=   None    Shift=    0.000
 RMSDP=6.88D-08 MaxDP=3.04D-06 DE=-2.24D-08 OVMax= 7.87D-06

 Cycle  11  Pass 1  IDiag  1:
 RMSU=  4.17D-08    CP:  9.81D-01  8.74D-01  8.39D-01  7.38D-01  6.15D-01
                    CP:  7.65D-01  8.53D-01  8.43D-01  7.58D-01  7.87D-01
 E= -1070.11189994971     Delta-E=       -0.000000000539 Rises=F Damp=F
 DIIS: error= 2.94D-07 at cycle  11 NSaved=  11.
 NSaved=11 IEnMin=11 EnMin= -1070.11189994971     IErMin=11 ErrMin= 2.94D-07
 ErrMax= 2.94D-07  0.00D+00 EMaxC= 1.00D-01 BMatC= 5.21D-11 BMatP= 6.14D-10
 IDIUse=1 WtCom= 1.00D+00 WtEn= 0.00D+00
 Coeff-Com:  0.129D-05 0.275D-06-0.960D-05-0.366D-04-0.192D-03-0.108D-02
 Coeff-Com: -0.446D-02-0.639D-02 0.193D-02 0.225D+00 0.785D+00
 Coeff:      0.129D-05 0.275D-06-0.960D-05-0.366D-04-0.192D-03-0.108D-02
 Coeff:     -0.446D-02-0.639D-02 0.193D-02 0.225D+00 0.785D+00
 Gap=     0.237 Goal=   None    Shift=    0.000
 RMSDP=1.64D-08 MaxDP=7.22D-07 DE=-5.39D-10 OVMax= 2.75D-06

 Cycle  12  Pass 1  IDiag  1:
 RMSU=  9.54D-09    CP:  9.81D-01  8.74D-01  8.39D-01  7.38D-01  6.15D-01
                    CP:  7.65D-01  8.53D-01  8.43D-01  7.61D-01  8.67D-01
                    CP:  8.92D-01
 E= -1070.11189994976     Delta-E=       -0.000000000057 Rises=F Damp=F
 DIIS: error= 1.27D-07 at cycle  12 NSaved=  12.
 NSaved=12 IEnMin=12 EnMin= -1070.11189994976     IErMin=12 ErrMin= 1.27D-07
 ErrMax= 1.27D-07  0.00D+00 EMaxC= 1.00D-01 BMatC= 5.76D-12 BMatP= 5.21D-11
 IDIUse=1 WtCom= 1.00D+00 WtEn= 0.00D+00
 Coeff-Com: -0.539D-06 0.266D-05 0.792D-05 0.224D-04-0.260D-04-0.314D-03
 Coeff-Com: -0.236D-02-0.757D-02-0.119D-01 0.595D-01 0.334D+00 0.629D+00
 Coeff:     -0.539D-06 0.266D-05 0.792D-05 0.224D-04-0.260D-04-0.314D-03
 Coeff:     -0.236D-02-0.757D-02-0.119D-01 0.595D-01 0.334D+00 0.629D+00
 Gap=     0.237 Goal=   None    Shift=    0.000
 RMSDP=5.31D-09 MaxDP=2.85D-07 DE=-5.71D-11 OVMax= 5.13D-07

 Error on total polarization charges =  0.00912
 SCF Done:  E(RPBE1PBE) =  -1070.11189995     A.U. after   12 cycles
            NFock= 12  Conv=0.53D-08     -V/T= 2.0044
 KE= 1.065449383277D+03 PE=-5.051687396125D+03 EE= 1.653061450581D+03
 Leave Link  502 at Mon Aug 19 18:21:45 2024, MaxMem=  8589934592 cpu:            1372.7 elap:              57.6
 (Enter /share/apps/g16.b01_avx2/g16/l601.exe)
 Copying SCF densities to generalized density rwf, IOpCl= 0 IROHF=0.

 **********************************************************************

            Population analysis using the SCF Density.

 **********************************************************************

 Orbital symmetries:
       Occupied  (A) (A) (A) (A) (A) (A) (A) (A) (A) (A) (A) (A)
                 (A) (A) (A) (A) (A) (A) (A) (A) (A) (A) (A) (A)
                 (A) (A) (A) (A) (A) (A) (A) (A) (A) (A) (A) (A)
                 (A) (A) (A) (A) (A) (A) (A) (A) (A) (A) (A) (A)
                 (A) (A) (A) (A) (A) (A) (A) (A) (A) (A) (A) (A)
                 (A) (A) (A) (A)
       Virtual   (A) (A) (A) (A) (A) (A) (A) (A) (A) (A) (A) (A)
                 (A) (A) (A) (A) (A) (A) (A) (A) (A) (A) (A) (A)
                 (A) (A) (A) (A) (A) (A) (A) (A) (A) (A) (A) (A)
                 (A) (A) (A) (A) (A) (A) (A) (A) (A) (A) (A) (A)
                 (A) (A) (A) (A) (A) (A) (A) (A) (A) (A) (A) (A)
                 (A) (A) (A) (A) (A) (A) (A) (A) (A) (A) (A) (A)
                 (A) (A) (A) (A) (A) (A) (A) (A) (A) (A) (A) (A)
                 (A) (A) (A) (A) (A) (A) (A) (A) (A) (A) (A) (A)
                 (A) (A) (A) (A) (A) (A) (A) (A) (A) (A) (A) (A)
                 (A) (A) (A) (A) (A) (A) (A) (A) (A) (A) (A) (A)
                 (A) (A) (A) (A) (A) (A) (A) (A) (A) (A) (A) (A)
                 (A) (A) (A) (A) (A) (A) (A) (A) (A) (A) (A) (A)
                 (A) (A) (A) (A) (A) (A) (A) (A) (A) (A) (A) (A)
                 (A) (A) (A) (A) (A) (A) (A) (A) (A) (A) (A) (A)
                 (A) (A) (A) (A) (A) (A) (A) (A) (A) (A) (A) (A)
                 (A) (A) (A) (A) (A) (A) (A) (A) (A) (A) (A) (A)
                 (A) (A) (A) (A) (A) (A) (A) (A) (A) (A) (A) (A)
                 (A) (A) (A) (A) (A) (A) (A) (A) (A) (A) (A) (A)
                 (A) (A) (A) (A) (A) (A) (A) (A) (A) (A) (A) (A)
                 (A) (A) (A) (A) (A) (A) (A) (A) (A) (A) (A) (A)
                 (A) (A) (A) (A) (A) (A) (A) (A) (A) (A) (A) (A)
                 (A) (A) (A) (A) (A) (A) (A) (A) (A) (A) (A) (A)
                 (A) (A) (A) (A) (A) (A) (A) (A) (A) (A) (A) (A)
                 (A) (A) (A) (A) (A) (A) (A) (A) (A) (A) (A) (A)
                 (A) (A) (A) (A) (A) (A) (A) (A) (A) (A) (A) (A)
                 (A) (A) (A) (A) (A) (A) (A) (A) (A) (A) (A) (A)
                 (A) (A) (A) (A) (A) (A) (A) (A) (A) (A) (A) (A)
                 (A) (A) (A) (A) (A) (A) (A) (A) (A) (A) (A) (A)
                 (A) (A) (A) (A) (A) (A) (A) (A) (A) (A) (A) (A)
                 (A) (A) (A) (A) (A) (A) (A) (A) (A) (A) (A) (A)
                 (A) (A) (A) (A) (A) (A) (A) (A) (A) (A) (A) (A)
                 (A) (A) (A) (A) (A) (A) (A) (A) (A) (A) (A) (A)
                 (A) (A) (A) (A) (A) (A) (A) (A) (A) (A) (A) (A)
                 (A) (A) (A) (A) (A) (A) (A) (A) (A) (A) (A) (A)
                 (A) (A) (A) (A) (A) (A) (A) (A) (A) (A) (A) (A)
                 (A) (A) (A) (A) (A) (A) (A) (A) (A) (A) (A) (A)
                 (A) (A) (A) (A) (A) (A) (A) (A) (A) (A) (A) (A)
                 (A) (A) (A) (A) (A) (A) (A) (A) (A) (A) (A) (A)
                 (A) (A) (A) (A) (A) (A) (A) (A) (A) (A) (A) (A)
                 (A) (A) (A) (A) (A) (A) (A) (A) (A) (A) (A) (A)
                 (A) (A) (A) (A) (A) (A) (A) (A) (A) (A) (A) (A)
                 (A)
 The electronic state is 1-A.
 Alpha  occ. eigenvalues --  -24.82210 -24.82196 -24.82195 -24.82060 -24.82060
 Alpha  occ. eigenvalues --  -19.30031 -19.23596 -19.22999 -10.40789 -10.36064
 Alpha  occ. eigenvalues --  -10.35875 -10.35866 -10.35666 -10.35666 -10.33576
 Alpha  occ. eigenvalues --  -10.30742 -10.25990  -1.30469  -1.29962  -1.29479
 Alpha  occ. eigenvalues --   -1.28748  -1.28330  -1.17996  -1.08148  -1.07396
 Alpha  occ. eigenvalues --   -0.93438  -0.82848  -0.81854  -0.78819  -0.72288
 Alpha  occ. eigenvalues --   -0.70410  -0.69497  -0.66130  -0.63092  -0.62640
 Alpha  occ. eigenvalues --   -0.59775  -0.57908  -0.56919  -0.56360  -0.56221
 Alpha  occ. eigenvalues --   -0.54770  -0.53683  -0.52819  -0.52648  -0.51443
 Alpha  occ. eigenvalues --   -0.50505  -0.50111  -0.49533  -0.47879  -0.47544
 Alpha  occ. eigenvalues --   -0.46989  -0.46647  -0.45181  -0.44129  -0.42853
 Alpha  occ. eigenvalues --   -0.42687  -0.41312  -0.38057  -0.36341  -0.36247
 Alpha  occ. eigenvalues --   -0.33194  -0.29407  -0.28478  -0.28343
 Alpha virt. eigenvalues --   -0.04598  -0.03950  -0.03155  -0.02614   0.03992
 Alpha virt. eigenvalues --    0.06293   0.07567   0.08132   0.09740   0.11752
 Alpha virt. eigenvalues --    0.12038   0.12086   0.13366   0.15461   0.15572
 Alpha virt. eigenvalues --    0.16002   0.16619   0.17005   0.17786   0.18640
 Alpha virt. eigenvalues --    0.19368   0.21069   0.21299   0.22012   0.23396
 Alpha virt. eigenvalues --    0.24812   0.25321   0.25532   0.26536   0.27178
 Alpha virt. eigenvalues --    0.27665   0.28136   0.29778   0.29900   0.30569
 Alpha virt. eigenvalues --    0.30711   0.31386   0.32576   0.34048   0.34365
 Alpha virt. eigenvalues --    0.35488   0.36535   0.36871   0.38039   0.38540
 Alpha virt. eigenvalues --    0.38885   0.39848   0.40072   0.40702   0.40761
 Alpha virt. eigenvalues --    0.41881   0.42604   0.43430   0.44156   0.45393
 Alpha virt. eigenvalues --    0.45904   0.46282   0.46951   0.47306   0.47728
 Alpha virt. eigenvalues --    0.49739   0.50719   0.51646   0.52334   0.53543
 Alpha virt. eigenvalues --    0.53834   0.54965   0.55739   0.57055   0.59842
 Alpha virt. eigenvalues --    0.60337   0.61603   0.61987   0.62564   0.62607
 Alpha virt. eigenvalues --    0.65250   0.65807   0.66817   0.67464   0.68083
 Alpha virt. eigenvalues --    0.68417   0.69831   0.70663   0.72159   0.72773
 Alpha virt. eigenvalues --    0.73805   0.75694   0.76876   0.78933   0.79142
 Alpha virt. eigenvalues --    0.80956   0.82240   0.82554   0.82843   0.84009
 Alpha virt. eigenvalues --    0.84198   0.85279   0.85766   0.86323   0.86356
 Alpha virt. eigenvalues --    0.87418   0.89179   0.90900   0.91099   0.92589
 Alpha virt. eigenvalues --    0.92658   0.94200   0.94594   0.95520   0.97918
 Alpha virt. eigenvalues --    0.99562   0.99965   1.00419   1.01781   1.03507
 Alpha virt. eigenvalues --    1.04845   1.05955   1.06561   1.08240   1.08854
 Alpha virt. eigenvalues --    1.08920   1.09431   1.12845   1.13974   1.14910
 Alpha virt. eigenvalues --    1.16276   1.17433   1.18304   1.20859   1.24199
 Alpha virt. eigenvalues --    1.25232   1.27899   1.30946   1.32043   1.34577
 Alpha virt. eigenvalues --    1.35352   1.36113   1.37006   1.38444   1.41918
 Alpha virt. eigenvalues --    1.42289   1.42733   1.43572   1.45928   1.46029
 Alpha virt. eigenvalues --    1.49407   1.50656   1.52064   1.52396   1.53377
 Alpha virt. eigenvalues --    1.55107   1.57083   1.57643   1.58316   1.61453
 Alpha virt. eigenvalues --    1.61509   1.62145   1.65269   1.66857   1.70756
 Alpha virt. eigenvalues --    1.70965   1.71803   1.73686   1.73853   1.76348
 Alpha virt. eigenvalues --    1.77388   1.78823   1.78918   1.80685   1.81950
 Alpha virt. eigenvalues --    1.82620   1.86416   1.86520   1.90158   1.92365
 Alpha virt. eigenvalues --    1.92730   1.93446   1.94544   1.94718   1.96657
 Alpha virt. eigenvalues --    1.97686   1.98385   2.01398   2.01871   2.02419
 Alpha virt. eigenvalues --    2.02813   2.03947   2.04795   2.05510   2.06732
 Alpha virt. eigenvalues --    2.10318   2.11032   2.12273   2.12621   2.14763
 Alpha virt. eigenvalues --    2.16942   2.17583   2.18071   2.18496   2.20745
 Alpha virt. eigenvalues --    2.21983   2.22743   2.25288   2.26305   2.28130
 Alpha virt. eigenvalues --    2.28374   2.31169   2.32678   2.32983   2.35255
 Alpha virt. eigenvalues --    2.35884   2.38851   2.40105   2.43316   2.43747
 Alpha virt. eigenvalues --    2.47756   2.48385   2.49523   2.50063   2.50749
 Alpha virt. eigenvalues --    2.53630   2.54063   2.56035   2.57396   2.57610
 Alpha virt. eigenvalues --    2.58496   2.59617   2.60801   2.61371   2.61801
 Alpha virt. eigenvalues --    2.62178   2.64276   2.66651   2.69567   2.70513
 Alpha virt. eigenvalues --    2.74117   2.74966   2.76436   2.76711   2.78353
 Alpha virt. eigenvalues --    2.79256   2.80238   2.81034   2.81732   2.83813
 Alpha virt. eigenvalues --    2.84561   2.84574   2.86548   2.87158   2.88365
 Alpha virt. eigenvalues --    2.89464   2.90189   2.92303   2.93295   2.94517
 Alpha virt. eigenvalues --    2.95565   2.95783   2.97277   2.97590   2.99244
 Alpha virt. eigenvalues --    3.00984   3.01747   3.02330   3.02765   3.06204
 Alpha virt. eigenvalues --    3.06500   3.07011   3.07326   3.09528   3.09724
 Alpha virt. eigenvalues --    3.10461   3.10651   3.13144   3.13543   3.15540
 Alpha virt. eigenvalues --    3.15566   3.16075   3.17988   3.18244   3.18762
 Alpha virt. eigenvalues --    3.19663   3.20040   3.21805   3.22468   3.25429
 Alpha virt. eigenvalues --    3.26332   3.27010   3.27152   3.28268   3.29309
 Alpha virt. eigenvalues --    3.33523   3.34255   3.35158   3.36929   3.37847
 Alpha virt. eigenvalues --    3.40472   3.41040   3.41364   3.41859   3.42054
 Alpha virt. eigenvalues --    3.43534   3.44151   3.45883   3.46600   3.46739
 Alpha virt. eigenvalues --    3.47743   3.48495   3.50669   3.53074   3.53558
 Alpha virt. eigenvalues --    3.55984   3.58662   3.59133   3.59452   3.60812
 Alpha virt. eigenvalues --    3.64638   3.65186   3.65495   3.67575   3.70356
 Alpha virt. eigenvalues --    3.71260   3.75468   3.76109   3.79437   3.81234
 Alpha virt. eigenvalues --    3.82194   3.83752   3.86402   3.87397   3.88976
 Alpha virt. eigenvalues --    3.93123   3.94275   3.97604   4.01921   4.02128
 Alpha virt. eigenvalues --    4.06347   4.08320   4.09040   4.09712   4.11746
 Alpha virt. eigenvalues --    4.13419   4.14121   4.16036   4.18312   4.21423
 Alpha virt. eigenvalues --    4.23692   4.24944   4.26894   4.27391   4.27651
 Alpha virt. eigenvalues --    4.31354   4.34201   4.35690   4.36061   4.38714
 Alpha virt. eigenvalues --    4.40689   4.42563   4.45270   4.47224   4.52182
 Alpha virt. eigenvalues --    4.55489   4.59680   4.68623   4.68965   4.71254
 Alpha virt. eigenvalues --    4.78241   4.78326   4.80347   4.82386   4.83712
 Alpha virt. eigenvalues --    4.90212   4.99819   5.09321   5.14407   5.17670
 Alpha virt. eigenvalues --    5.24155   5.28988   5.30376   5.31365   5.36999
 Alpha virt. eigenvalues --    5.40917   5.41351   5.43328   5.50855   5.50997
 Alpha virt. eigenvalues --    5.56421   5.68432   5.70665   5.75811   5.81987
 Alpha virt. eigenvalues --    5.83529   5.84334   5.89671   5.97736   6.07825
 Alpha virt. eigenvalues --    6.12861   6.17478   6.22050   6.32904   6.40347
 Alpha virt. eigenvalues --    6.40567   6.47134   6.61636   6.63462   6.70753
 Alpha virt. eigenvalues --    6.71458   6.75931   6.78467   6.82745   6.84572
 Alpha virt. eigenvalues --    6.84701   6.84927   6.85114   6.85181   6.86023
 Alpha virt. eigenvalues --    6.86223   6.86234   6.86367   6.86888   6.90192
 Alpha virt. eigenvalues --    6.92196   6.94420   6.95539   6.98202   6.99655
 Alpha virt. eigenvalues --    7.00722   7.03029   7.03371   7.03585   7.06269
 Alpha virt. eigenvalues --    7.10945   7.11985   7.13903   7.16433   7.19225
 Alpha virt. eigenvalues --    7.20660   7.23715   7.23882   7.25088   7.25213
 Alpha virt. eigenvalues --    7.28484   7.30483   7.35363   7.37266   7.38882
 Alpha virt. eigenvalues --    7.41164   7.44755   7.59107   7.61919   7.66128
 Alpha virt. eigenvalues --    7.99195   8.29348   8.31643   8.33361   8.35301
 Alpha virt. eigenvalues --    8.40363   8.41485   8.50521   8.53228   8.55794
 Alpha virt. eigenvalues --    8.67163   8.70120   8.73230   8.74415   8.77022
 Alpha virt. eigenvalues --    8.77485   8.84017   8.86173   8.90795   8.93514
 Alpha virt. eigenvalues --    8.99628   8.99734   9.04094   9.05787   9.10077
 Alpha virt. eigenvalues --    9.35551  22.21330  22.40663  22.58487  22.83395
 Alpha virt. eigenvalues --   22.85448  22.96089  22.97090  23.09197  23.63211
 Alpha virt. eigenvalues --   43.90210  44.10458  44.48880  57.17602  57.37401
 Alpha virt. eigenvalues --   57.42886  57.48609  57.60551
          Condensed to atoms (all electrons):
               1          2          3          4          5          6
     1  O    7.905582   0.570973  -0.043890  -0.079609   0.000840   0.017550
     2  C    0.570973   4.604432   0.351079   0.332202  -0.149931   0.000427
     3  C   -0.043890   0.351079   4.727145  -0.029958  -0.009602   0.000829
     4  O   -0.079609   0.332202  -0.029958   7.802023   0.245670  -0.034827
     5  C    0.000840  -0.149931  -0.009602   0.245670   5.356027   0.290995
     6  C    0.017550   0.000427   0.000829  -0.034827   0.290995   5.001724
     7  C    0.017714   0.000448   0.000642  -0.034806   0.290980  -0.008856
     8  C   -0.002726   0.001139  -0.000173   0.009638  -0.042493   0.354608
     9  C   -0.002606   0.001122  -0.000200   0.009508  -0.042465   0.005883
    10  C    0.000001   0.000571   0.000054   0.001064   0.010300  -0.054017
    11  F   -0.000734   0.008462  -0.000237   0.000684  -0.060158   0.303079
    12  F   -0.000738   0.008596  -0.000183   0.000675  -0.060325   0.003544
    13  F    0.000001   0.000007   0.000000  -0.000060   0.009346  -0.044534
    14  F    0.000001   0.000007   0.000000  -0.000060   0.009347  -0.000532
    15  F   -0.000000   0.000001   0.000000  -0.000001  -0.000962   0.006485
    16  H    0.000496  -0.024392   0.410375   0.000121   0.000273   0.000136
    17  H    0.001001  -0.022503   0.408687  -0.000014   0.000378  -0.000409
    18  O    0.002739  -0.062452   0.304362  -0.002034   0.002443   0.000023
    19  C    0.000085   0.001163  -0.040312   0.000038  -0.000105   0.000004
    20  H   -0.000050  -0.000695  -0.009665  -0.000030   0.000011   0.000002
    21  H    0.000008   0.000248   0.007782  -0.000005  -0.000033   0.000000
    22  H   -0.000041  -0.000459  -0.008800  -0.000039   0.000024  -0.000003
               7          8          9         10         11         12
     1  O    0.017714  -0.002726  -0.002606   0.000001  -0.000734  -0.000738
     2  C    0.000448   0.001139   0.001122   0.000571   0.008462   0.008596
     3  C    0.000642  -0.000173  -0.000200   0.000054  -0.000237  -0.000183
     4  O   -0.034806   0.009638   0.009508   0.001064   0.000684   0.000675
     5  C    0.290980  -0.042493  -0.042465   0.010300  -0.060158  -0.060325
     6  C   -0.008856   0.354608   0.005883  -0.054017   0.303079   0.003544
     7  C    5.000577   0.005812   0.355941  -0.054108   0.003541   0.303130
     8  C    0.005812   4.961680  -0.048587   0.379768  -0.038242  -0.000915
     9  C    0.355941  -0.048587   4.960185   0.380037  -0.000915  -0.038283
    10  C   -0.054108   0.379768   0.380037   4.965972   0.005748   0.005737
    11  F    0.003541  -0.038242  -0.000915   0.005748   8.947163  -0.000021
    12  F    0.303130  -0.000915  -0.038283   0.005737  -0.000021   8.947128
    13  F   -0.000530   0.284964   0.006647  -0.040253   0.001006   0.000000
    14  F   -0.044512   0.006648   0.284978  -0.040277   0.000000   0.001006
    15  F    0.006481  -0.042685  -0.042676   0.290592  -0.000021  -0.000020
    16  H   -0.000405   0.000017  -0.000033  -0.000000   0.000002   0.000023
    17  H    0.000127  -0.000037   0.000015   0.000000   0.000020   0.000002
    18  O   -0.000017  -0.000002  -0.000003   0.000002  -0.000022  -0.000021
    19  C    0.000012  -0.000001  -0.000000   0.000000  -0.000002  -0.000000
    20  H   -0.000003   0.000000  -0.000000   0.000000  -0.000000   0.000000
    21  H   -0.000000   0.000000   0.000000  -0.000000  -0.000000  -0.000000
    22  H    0.000002  -0.000000  -0.000000   0.000000   0.000000  -0.000000
              13         14         15         16         17         18
     1  O    0.000001   0.000001  -0.000000   0.000496   0.001001   0.002739
     2  C    0.000007   0.000007   0.000001  -0.024392  -0.022503  -0.062452
     3  C    0.000000   0.000000   0.000000   0.410375   0.408687   0.304362
     4  O   -0.000060  -0.000060  -0.000001   0.000121  -0.000014  -0.002034
     5  C    0.009346   0.009347  -0.000962   0.000273   0.000378   0.002443
     6  C   -0.044534  -0.000532   0.006485   0.000136  -0.000409   0.000023
     7  C   -0.000530  -0.044512   0.006481  -0.000405   0.000127  -0.000017
     8  C    0.284964   0.006648  -0.042685   0.000017  -0.000037  -0.000002
     9  C    0.006647   0.284978  -0.042676  -0.000033   0.000015  -0.000003
    10  C   -0.040253  -0.040277   0.290592  -0.000000   0.000000   0.000002
    11  F    0.001006   0.000000  -0.000021   0.000002   0.000020  -0.000022
    12  F    0.000000   0.001006  -0.000020   0.000023   0.000002  -0.000021
    13  F    8.952808  -0.000022   0.001065  -0.000000   0.000000  -0.000000
    14  F   -0.000022   8.952799   0.001065   0.000000  -0.000000   0.000000
    15  F    0.001065   0.001065   8.948317  -0.000000  -0.000000  -0.000000
    16  H   -0.000000   0.000000  -0.000000   0.539896  -0.046174  -0.043361
    17  H    0.000000  -0.000000  -0.000000  -0.046174   0.536350  -0.041182
    18  O   -0.000000   0.000000  -0.000000  -0.043361  -0.041182   8.002776
    19  C    0.000000   0.000000  -0.000000  -0.000571  -0.002670   0.260014
    20  H   -0.000000  -0.000000  -0.000000   0.014833  -0.005665  -0.045102
    21  H    0.000000  -0.000000  -0.000000  -0.000077  -0.000059  -0.027926
    22  H   -0.000000   0.000000  -0.000000  -0.007535   0.013933  -0.043330
              19         20         21         22
     1  O    0.000085  -0.000050   0.000008  -0.000041
     2  C    0.001163  -0.000695   0.000248  -0.000459
     3  C   -0.040312  -0.009665   0.007782  -0.008800
     4  O    0.000038  -0.000030  -0.000005  -0.000039
     5  C   -0.000105   0.000011  -0.000033   0.000024
     6  C    0.000004   0.000002   0.000000  -0.000003
     7  C    0.000012  -0.000003  -0.000000   0.000002
     8  C   -0.000001   0.000000   0.000000  -0.000000
     9  C   -0.000000  -0.000000   0.000000  -0.000000
    10  C    0.000000   0.000000  -0.000000   0.000000
    11  F   -0.000002  -0.000000  -0.000000   0.000000
    12  F   -0.000000   0.000000  -0.000000  -0.000000
    13  F    0.000000  -0.000000   0.000000  -0.000000
    14  F    0.000000  -0.000000  -0.000000   0.000000
    15  F   -0.000000  -0.000000  -0.000000  -0.000000
    16  H   -0.000571   0.014833  -0.000077  -0.007535
    17  H   -0.002670  -0.005665  -0.000059   0.013933
    18  O    0.260014  -0.045102  -0.027926  -0.043330
    19  C    4.775402   0.425315   0.397694   0.421770
    20  H    0.425315   0.559649  -0.022148  -0.050021
    21  H    0.397694  -0.022148   0.516084  -0.022140
    22  H    0.421770  -0.050021  -0.022140   0.565246
 Mulliken charges:
               1
     1  O   -0.386596
     2  C    0.379556
     3  C   -0.067937
     4  O   -0.220179
     5  C    0.149440
     6  C    0.157889
     7  C    0.157832
     8  C    0.171586
     9  C    0.171452
    10  C    0.148810
    11  F   -0.169354
    12  F   -0.169336
    13  F   -0.170446
    14  F   -0.170448
    15  F   -0.167640
    16  H    0.156378
    17  H    0.158200
    18  O   -0.306907
    19  C   -0.237835
    20  H    0.133570
    21  H    0.150572
    22  H    0.131393
 Sum of Mulliken charges =  -0.00000
 Mulliken charges with hydrogens summed into heavy atoms:
               1
     1  O   -0.386596
     2  C    0.379556
     3  C    0.246641
     4  O   -0.220179
     5  C    0.149440
     6  C    0.157889
     7  C    0.157832
     8  C    0.171586
     9  C    0.171452
    10  C    0.148810
    11  F   -0.169354
    12  F   -0.169336
    13  F   -0.170446
    14  F   -0.170448
    15  F   -0.167640
    18  O   -0.306907
    19  C    0.177700
 Electronic spatial extent (au):  <R**2>=           4742.0392
 Charge=             -0.0000 electrons
 Dipole moment (field-independent basis, Debye):
    X=             -5.0764    Y=              0.0961    Z=             -0.5906  Tot=              5.1115
 Quadrupole moment (field-independent basis, Debye-Ang):
   XX=            -70.5342   YY=            -98.0550   ZZ=            -96.2191
   XY=             -0.4112   XZ=             -2.9114   YZ=             -0.1594
 Traceless Quadrupole moment (field-independent basis, Debye-Ang):
   XX=             17.7352   YY=             -9.7856   ZZ=             -7.9496
   XY=             -0.4112   XZ=             -2.9114   YZ=             -0.1594
 Octapole moment (field-independent basis, Debye-Ang**2):
  XXX=           -159.3240  YYY=             -0.0156  ZZZ=            -18.3343  XYY=             -5.5751
  XXY=              1.9638  XXZ=              5.6049  XZZ=             16.6976  YZZ=              0.2504
  YYZ=              2.9820  XYZ=              0.6730
 Hexadecapole moment (field-independent basis, Debye-Ang**3):
 XXXX=          -3512.6266 YYYY=           -998.1310 ZZZZ=           -343.7877 XXXY=             -8.7237
 XXXZ=             14.1706 YYYX=             -0.2142 YYYZ=              0.0279 ZZZX=             34.5275
 ZZZY=              1.1519 XXYY=           -874.0295 XXZZ=           -721.2603 YYZZ=           -205.8026
 XXYZ=             -3.8223 YYXZ=             -7.3245 ZZXY=             -0.1459
 N-N= 1.263064662317D+03 E-N=-5.051687395950D+03  KE= 1.065449383277D+03
 No NMR shielding tensors so no spin-rotation constants.
 Leave Link  601 at Mon Aug 19 18:21:45 2024, MaxMem=  8589934592 cpu:               5.2 elap:               0.3
 (Enter /share/apps/g16.b01_avx2/g16/l701.exe)
 ... and contract with generalized density number  0.
 Compute integral first derivatives.
 R6Disp: Adding Grimme-D3 dispersion energy 1st derivatives to the gradient.
   1 Symmetry operations used in ECPInt.
 ECPInt:  NShTT=   21528 NPrTT=   69024 LenC2=   18389 LenP2D=   41971.
 LDataN:  DoStor=T MaxTD1= 7 Len=  274
 D1PCM: PCM CHGder 1st derivatives, ID1Alg=3 FixD1E=F DoIter=F DoCFld=F I1PDM=0.
 GePol: Maximum number of non-zero 1st derivatives   =     230
 Leave Link  701 at Mon Aug 19 18:21:47 2024, MaxMem=  8589934592 cpu:              32.8 elap:               1.4
 (Enter /share/apps/g16.b01_avx2/g16/l702.exe)
 L702 exits ... SP integral derivatives will be done elsewhere.
 Leave Link  702 at Mon Aug 19 18:21:47 2024, MaxMem=  8589934592 cpu:               0.5 elap:               0.0
 (Enter /share/apps/g16.b01_avx2/g16/l703.exe)
 Integral derivatives from FoFJK, PRISM(SPDF).
 Compute integral first derivatives, UseDBF=F ICtDFT=           0.
 Calling FoFJK, ICntrl=      2127 FMM=F ISym2X=0 I1Cent= 0 IOpClX= 0 NMat=1 NMatS=1 NMatT=0.
 FoFJK:  IHMeth= 1 ICntrl=    2127 DoSepK=F KAlg= 0 I1Cent=           0 FoldK=F
 IRaf=         0 NMat=       1 IRICut=       1 DoRegI=T DoRafI=F ISym2E= 0 IDoP0=0 IntGTp=1.
 FoFCou: FMM=F IPFlag=           0 FMFlag=      100000 FMFlg1=         800
         NFxFlg=           0 DoJE=F BraDBF=F KetDBF=F FulRan=T
         wScrn=  0.000000 ICntrl=      2127 IOpCl=  0 I1Cent=           0 NGrid=           0
         NMat0=    1 NMatS0=      1 NMatT0=    0 NMatD0=    1 NMtDS0=    0 NMtDT0=    0
 Symmetry not used in FoFCou.
 Leave Link  703 at Mon Aug 19 18:22:14 2024, MaxMem=  8589934592 cpu:             635.9 elap:              26.5
 (Enter /share/apps/g16.b01_avx2/g16/l716.exe)
 Dipole        =-1.99720318D+00 3.77902745D-02-2.32363305D-01
 ***** Axes restored to original set *****
 -------------------------------------------------------------------
 Center     Atomic                   Forces (Hartrees/Bohr)
 Number     Number              X              Y              Z
 -------------------------------------------------------------------
      1        8           0.031723352    0.074473798    0.047677557
      2        6          -0.041787661   -0.070319866   -0.033074992
      3        6          -0.022629907    0.028101864    0.052653148
      4        8           0.077392077    0.026299808   -0.049425565
      5        6          -0.040287935   -0.029108237    0.009310299
      6        6          -0.005049090   -0.005583145    0.005233526
      7        6          -0.008963017   -0.001421629    0.001324380
      8        6           0.002909093   -0.004277957    0.004882377
      9        6          -0.004969025    0.004106628   -0.003001502
     10        6          -0.004115357   -0.002620643    0.001331406
     11        9          -0.021090105    0.006743352   -0.008721078
     12        9           0.002512231   -0.018394747    0.014886985
     13        9          -0.002546284    0.016599799   -0.014477477
     14        9           0.019600291   -0.006981111    0.007665359
     15        9           0.019117648    0.010758970   -0.007672213
     16        1          -0.008221835    0.000429810   -0.017495786
     17        1           0.008679949   -0.017103175   -0.001033040
     18        8           0.002530624   -0.006102247   -0.010059408
     19        6          -0.018194631   -0.013075816    0.007845765
     20        1          -0.002272016    0.007877595   -0.016123467
     21        1           0.000038848    0.008480834    0.010614494
     22        1           0.015622752   -0.008883883   -0.002340768
 -------------------------------------------------------------------
 Cartesian Forces:  Max     0.077392077 RMS     0.023871084
 Leave Link  716 at Mon Aug 19 18:22:14 2024, MaxMem=  8589934592 cpu:               0.5 elap:               0.0
 (Enter /share/apps/g16.b01_avx2/g16/l103.exe)

 GradGradGradGradGradGradGradGradGradGradGradGradGradGradGradGradGradGrad
 Berny optimization.
 FormGI is forming the generalized inverse of G from B-inverse, IUseBI=4.
 GSVD:  received Info=                   1 from GESDD.
 Internal  Forces:  Max     0.093889163 RMS     0.015231536
 Search for a local minimum.
 Step number   1 out of a maximum of  107
 All quantities printed in internal units (Hartrees-Bohrs-Radians)
 RMS Force = .15232D-01 SwitMx=.10000D-02 MixMth= 1
 Mixed Optimization -- RFO/linear search
 Second derivative matrix not updated -- first step.
 ITU=  0
     Eigenvalues ---    0.00237   0.00501   0.01295   0.01295   0.01295
     Eigenvalues ---    0.02070   0.02070   0.02070   0.02070   0.02070
     Eigenvalues ---    0.02070   0.02070   0.02070   0.02239   0.02997
     Eigenvalues ---    0.06248   0.07241   0.10344   0.10344   0.11346
     Eigenvalues ---    0.13882   0.16000   0.16000   0.16000   0.22113
     Eigenvalues ---    0.25000   0.25000   0.25000   0.25000   0.25000
     Eigenvalues ---    0.25000   0.25000   0.25000   0.25000   0.25000
     Eigenvalues ---    0.25000   0.25000   0.25000   0.28519   0.37230
     Eigenvalues ---    0.37230   0.37230   0.37230   0.37230   0.40989
     Eigenvalues ---    0.40989   0.40989   0.41797   0.41797   0.45389
     Eigenvalues ---    0.45389   0.45389   0.45389   0.55021   0.55021
     Eigenvalues ---    0.55021   0.55021   0.55021   0.66833   0.80209
 RFO step:  Lambda=-4.10190621D-02 EMin= 2.36824221D-03
 Linear search not attempted -- first point.
 Iteration  1 RMS(Cart)=  0.06656416 RMS(Int)=  0.00102771
 Iteration  2 RMS(Cart)=  0.00112974 RMS(Int)=  0.00032879
 Iteration  3 RMS(Cart)=  0.00000306 RMS(Int)=  0.00032879
 Iteration  4 RMS(Cart)=  0.00000000 RMS(Int)=  0.00032879
 ITry= 1 IFail=0 DXMaxC= 2.18D-01 DCOld= 1.00D+10 DXMaxT= 3.00D-01 DXLimC= 3.00D+00 Rises=F
 Variable       Old X    -DE/DX   Delta X   Delta X   Delta X     New X
                                 (Linear)    (Quad)   (Total)
    R1        2.37803  -0.09389   0.00000  -0.11136  -0.11136   2.26667
    R2        2.91018  -0.02835   0.00000  -0.08690  -0.08690   2.82328
    R3        2.70231  -0.04891   0.00000  -0.10847  -0.10847   2.59384
    R4        2.02201   0.01771   0.00000   0.04284   0.04284   2.06485
    R5        2.02201   0.01770   0.00000   0.04282   0.04282   2.06482
    R6        2.70231  -0.01555   0.00000  -0.03448  -0.03448   2.66782
    R7        2.45910   0.05272   0.00000   0.07432   0.07432   2.53342
    R8        2.64826  -0.01159   0.00000  -0.02289  -0.02287   2.62539
    R9        2.64826  -0.01158   0.00000  -0.02288  -0.02285   2.62541
   R10        2.64826  -0.01826   0.00000  -0.03690  -0.03690   2.61136
   R11        2.55113  -0.02377   0.00000  -0.04020  -0.04020   2.51093
   R12        2.64826  -0.01826   0.00000  -0.03690  -0.03690   2.61136
   R13        2.55113  -0.02377   0.00000  -0.04020  -0.04020   2.51093
   R14        2.64826  -0.01822   0.00000  -0.03734  -0.03737   2.61090
   R15        2.55113  -0.02216   0.00000  -0.03748  -0.03748   2.51365
   R16        2.64826  -0.01822   0.00000  -0.03734  -0.03737   2.61089
   R17        2.55113  -0.02216   0.00000  -0.03748  -0.03748   2.51365
   R18        2.55113  -0.02324   0.00000  -0.03931  -0.03931   2.51182
   R19        2.70231  -0.00655   0.00000  -0.01453  -0.01453   2.68778
   R20        2.02201   0.01792   0.00000   0.04337   0.04337   2.06537
   R21        2.02201   0.01290   0.00000   0.03121   0.03121   2.05322
   R22        2.02201   0.01790   0.00000   0.04332   0.04332   2.06533
    A1        2.09440   0.01579   0.00000   0.05427   0.05427   2.14867
    A2        2.09440   0.00807   0.00000   0.02772   0.02772   2.12212
    A3        2.09440  -0.02386   0.00000  -0.08200  -0.08200   2.01240
    A4        1.91063  -0.00749   0.00000  -0.04516  -0.04584   1.86479
    A5        1.91063  -0.00739   0.00000  -0.04475  -0.04542   1.86521
    A6        1.91063   0.00496   0.00000   0.02097   0.02123   1.93186
    A7        1.91063   0.00195   0.00000   0.00299   0.00073   1.91136
    A8        1.91063   0.00406   0.00000   0.03353   0.03360   1.94423
    A9        1.91063   0.00390   0.00000   0.03242   0.03247   1.94310
   A10        2.09440  -0.01547   0.00000  -0.05317  -0.05317   2.04122
   A11        2.09440   0.00471   0.00000   0.01526   0.01519   2.10959
   A12        2.09440   0.00475   0.00000   0.01542   0.01535   2.10975
   A13        2.09440  -0.00946   0.00000  -0.03068  -0.03067   2.06373
   A14        2.09440   0.00500   0.00000   0.01808   0.01811   2.11251
   A15        2.09440  -0.00330   0.00000  -0.01178  -0.01179   2.08260
   A16        2.09440  -0.00170   0.00000  -0.00631  -0.00632   2.08807
   A17        2.09440   0.00499   0.00000   0.01806   0.01809   2.11249
   A18        2.09440  -0.00328   0.00000  -0.01173  -0.01174   2.08265
   A19        2.09440  -0.00171   0.00000  -0.00633  -0.00635   2.08805
   A20        2.09440  -0.00041   0.00000  -0.00231  -0.00233   2.09206
   A21        2.09440   0.00125   0.00000   0.00476   0.00478   2.09917
   A22        2.09440  -0.00085   0.00000  -0.00245  -0.00244   2.09195
   A23        2.09440  -0.00040   0.00000  -0.00229  -0.00231   2.09208
   A24        2.09440   0.00125   0.00000   0.00476   0.00477   2.09917
   A25        2.09440  -0.00085   0.00000  -0.00247  -0.00246   2.09194
   A26        2.09440   0.00028   0.00000  -0.00086  -0.00090   2.09349
   A27        2.09440  -0.00013   0.00000   0.00045   0.00047   2.09487
   A28        2.09440  -0.00015   0.00000   0.00041   0.00043   2.09483
   A29        1.91114   0.00510   0.00000   0.01753   0.01753   1.92867
   A30        1.91063   0.00440   0.00000   0.02319   0.02299   1.93362
   A31        1.91063  -0.00838   0.00000  -0.04426  -0.04417   1.86646
   A32        1.91063   0.00493   0.00000   0.02583   0.02564   1.93627
   A33        1.91063   0.00034   0.00000  -0.00085  -0.00077   1.90986
   A34        1.91063  -0.00139   0.00000  -0.00178  -0.00222   1.90842
   A35        1.91063   0.00009   0.00000  -0.00213  -0.00202   1.90861
    D1        1.04720  -0.00334   0.00000  -0.02499  -0.02406   1.02314
    D2       -1.04720   0.00338   0.00000   0.02641   0.02548  -1.02171
    D3        3.14159   0.00008   0.00000   0.00127   0.00127  -3.14033
    D4       -2.09440  -0.00337   0.00000  -0.02567  -0.02474  -2.11914
    D5        2.09440   0.00334   0.00000   0.02573   0.02480   2.11920
    D6        0.00000   0.00005   0.00000   0.00059   0.00059   0.00059
    D7        0.00000   0.00002   0.00000   0.00034   0.00034   0.00034
    D8       -3.14159   0.00005   0.00000   0.00101   0.00101  -3.14058
    D9       -3.06111  -0.00031   0.00000  -0.00597  -0.00598  -3.06708
   D10       -0.96671  -0.00396   0.00000  -0.02790  -0.02819  -0.99490
   D11        1.12768   0.00331   0.00000   0.01615   0.01644   1.14413
   D12        1.57080   0.00056   0.00000   0.00882   0.00902   1.57981
   D13       -1.57080  -0.00053   0.00000  -0.00835  -0.00854  -1.57934
   D14        3.14159  -0.00143   0.00000  -0.02286  -0.02282   3.11877
   D15       -0.00000  -0.00144   0.00000  -0.02308  -0.02302  -0.02302
   D16       -0.00000  -0.00034   0.00000  -0.00570  -0.00572  -0.00572
   D17        3.14159  -0.00035   0.00000  -0.00592  -0.00592   3.13567
   D18       -3.14159   0.00142   0.00000   0.02281   0.02277  -3.11882
   D19       -0.00000   0.00144   0.00000   0.02308   0.02302   0.02302
   D20        0.00000   0.00034   0.00000   0.00565   0.00567   0.00567
   D21        3.14159   0.00035   0.00000   0.00592   0.00591  -3.13568
   D22        0.00000   0.00015   0.00000   0.00256   0.00262   0.00263
   D23       -3.14159   0.00017   0.00000   0.00285   0.00290  -3.13869
   D24       -3.14159   0.00017   0.00000   0.00278   0.00282  -3.13877
   D25        0.00000   0.00019   0.00000   0.00307   0.00309   0.00310
   D26        0.00000  -0.00015   0.00000  -0.00245  -0.00252  -0.00252
   D27        3.14159  -0.00017   0.00000  -0.00280  -0.00285   3.13875
   D28       -3.14159  -0.00016   0.00000  -0.00272  -0.00276   3.13883
   D29        0.00000  -0.00019   0.00000  -0.00307  -0.00309  -0.00309
   D30        0.00000   0.00004   0.00000   0.00064   0.00067   0.00068
   D31       -3.14159   0.00012   0.00000   0.00193   0.00192  -3.13967
   D32       -3.14159   0.00002   0.00000   0.00035   0.00040  -3.14119
   D33        0.00000   0.00010   0.00000   0.00164   0.00165   0.00165
   D34       -0.00000  -0.00004   0.00000  -0.00069  -0.00073  -0.00073
   D35        3.14159  -0.00012   0.00000  -0.00198  -0.00197   3.13962
   D36        3.14159  -0.00002   0.00000  -0.00034  -0.00040   3.14119
   D37       -0.00000  -0.00010   0.00000  -0.00163  -0.00164  -0.00164
   D38        1.08917   0.00181   0.00000   0.01015   0.01057   1.09974
   D39       -3.09962  -0.00021   0.00000  -0.00379  -0.00377  -3.10339
   D40       -1.00522  -0.00221   0.00000  -0.01769  -0.01812  -1.02335
         Item               Value     Threshold  Converged?
 Maximum Force            0.093889     0.000450     NO 
 RMS     Force            0.015232     0.000300     NO 
 Maximum Displacement     0.217766     0.001800     NO 
 RMS     Displacement     0.066487     0.001200     NO 
 Predicted change in Energy=-2.241894D-02
 Lowest energy point so far.  Saving SCF results.
 GradGradGradGradGradGradGradGradGradGradGradGradGradGradGradGradGradGrad

 Leave Link  103 at Mon Aug 19 18:22:14 2024, MaxMem=  8589934592 cpu:               1.5 elap:               0.1
 (Enter /share/apps/g16.b01_avx2/g16/l202.exe)
                          Input orientation:                          
 ---------------------------------------------------------------------
 Center     Atomic      Atomic             Coordinates (Angstroms)
 Number     Number       Type             X           Y           Z
 ---------------------------------------------------------------------
      1          8           0        0.722174   -0.147894   -3.058789
      2          6           0        1.182359    0.809558   -2.501793
      3          6           0        2.409519    1.517798   -2.975671
      4          8           0        0.604664    1.329889   -1.370616
      5          6           0       -0.498348    0.718759   -0.915456
      6          6           0       -0.410699   -0.315025    0.008535
      7          6           0       -1.760223    1.116244   -1.339544
      8          6           0       -1.546640   -0.929422    0.500187
      9          6           0       -2.900499    0.506404   -0.852274
     10          6           0       -2.792991   -0.517470    0.069145
     11          9           0        0.785763   -0.716993    0.423761
     12          9           0       -1.868833    2.098334   -2.227921
     13          9           0       -1.445158   -1.915642    1.386990
     14          9           0       -4.101301    0.901289   -1.266384
     15          9           0       -3.887830   -1.104742    0.541598
     16          1           0        2.207348    1.853594   -3.995622
     17          1           0        3.216318    0.781020   -2.987166
     18          8           0        2.717598    2.603526   -2.127540
     19          6           0        3.827216    3.333702   -2.636034
     20          1           0        3.590004    3.772566   -3.608487
     21          1           0        4.037880    4.126444   -1.923503
     22          1           0        4.706006    2.691268   -2.733447
 ---------------------------------------------------------------------
                    Distance matrix (angstroms):
                    1          2          3          4          5
     1  O    0.000000
     2  C    1.199470   0.000000
     3  C    2.372461   1.494017   0.000000
     4  O    2.246682   1.372602   2.422605   0.000000
     5  C    2.614314   2.312896   3.652210   1.340629   0.000000
     6  C    3.274113   3.178721   4.496483   2.374607   1.389299
     7  C    3.273552   3.178627   4.497211   2.374721   1.389306
     8  C    4.292391   4.413997   5.807036   3.637650   2.412356
     9  C    4.291920   4.413904   5.807584   3.637716   2.412347
    10  C    4.719846   4.916720   6.362337   4.126706   2.786232
    11  F    3.529317   3.323630   4.380299   2.728060   2.346024
    12  F    3.528342   3.323511   4.381832   2.728309   2.346065
    13  F    5.252353   5.427080   6.758688   4.726482   3.624607
    14  F    5.251610   5.426944   6.759625   4.726592   3.624602
    15  F    5.927097   6.215592   7.674992   5.455867   4.115428
[...]
 783458,-0.03142445,0.03106453,0.00034575,0.00585855,-0.00087930,0.0032
 5681,-0.00201240,0.00186434,-0.03021647,0.29033792,-0.00071896,0.00054
 424,0.00087154,0.00180222,-0.00085846,-0.00157638,0.00003008,0.0003500
 0,0.00007138,-0.00133852,-0.00489991,-0.00042718,-0.00275073,0.0235747
 5,-0.01027243,0.00257141,0.00073365,0.00371506,-0.01490783,0.15670667,
 -0.15833965,-0.00089391,-0.00426660,0.00058520,-0.00578472,0.03350650,
 -0.01692177,0.00057857,-0.00114847,0.00541828,-0.00241597,0.00193069,-
 0.00068033,0.02047944,-0.20687174,0.18248318,0.00003200,0.00021730,0.0
 0021007,0.00027065,-0.00054159,-0.00059720,-0.00004391,0.00009646,-0.0
 0002099,0.00005685,-0.00133623,0.00173362,-0.00772097,0.00287816,-0.00
 150588,0.00680418,-0.02798573,0.02178814,0.00287488,-0.00035375,-0.000
 17884,-0.07572077,0.02200061,-0.01428803,-0.00670250,-0.00414537,0.004
 01551,0.00040835,0.03634037,-0.02750622,0.00679104,-0.00149902,0.00036
 598,0.00002556,0.00074670,-0.00050779,0.06812231,-0.00034986,0.0011710
 2,0.00144859,0.00202176,-0.00238783,-0.00337276,-0.00001277,0.00053935
 ,0.00017907,-0.00320203,-0.00081250,0.00415989,0.00054572,0.00447705,-
 0.00021723,0.00831073,-0.03033712,0.02892815,-0.00039514,0.00263960,-0
 .00425545,0.02203185,-0.24325378,0.15882611,-0.00219262,0.00436811,0.0
 0029674,-0.00035616,-0.02812489,0.02804529,-0.00394517,0.00351430,-0.0
 0670889,0.00081977,-0.00620874,0.00554532,-0.02894925,0.29312907,0.000
 31699,-0.00103571,-0.00103131,-0.00181293,0.00189877,0.00276990,-0.000
 03653,-0.00037620,-0.00015413,0.00270407,0.00126186,-0.00282517,0.0003
 3687,-0.00007940,0.00479717,-0.00631617,0.03164744,-0.01562349,-0.0000
 3913,-0.00425010,0.00039304,-0.01430451,0.15891109,-0.15703562,0.00247
 509,0.00037444,0.00389472,0.00084981,0.02542703,-0.01157517,0.00228356
 ,-0.00695054,-0.00034070,-0.00056767,0.00551223,-0.00328497,0.01915112
 ,-0.20735216,0.18038334,-0.00039066,0.00162472,0.00165750,0.00222602,-
 0.00318097,-0.00450060,0.00014681,0.00059390,0.00044997,-0.00648987,0.
 00128495,0.00329133,0.00442283,-0.00304452,0.00237279,0.00538393,-0.00
 129588,0.00018842,-0.05483789,0.02785685,-0.01717292,-0.00025668,-0.00
 437815,0.00359160,-0.31424470,0.09816473,-0.05617068,-0.02804397,0.008
 59785,-0.00413099,-0.00857229,0.00348656,-0.00202799,0.00656697,-0.003
 97847,0.00217246,-0.00089462,0.00330902,-0.00243749,0.38472761,0.00028
 935,-0.00019584,-0.00052123,-0.00081801,0.00030987,0.00082537,-0.00000
 586,-0.00014795,0.00000101,0.00033216,0.00077177,-0.00071384,-0.000723
 87,-0.00283099,0.00582045,-0.00119805,0.00120154,-0.00286837,-0.008390
 75,0.00739405,0.00116510,-0.00621570,0.00042302,0.00362008,0.09807248,
 -0.09816000,0.04160090,0.04543647,-0.01091095,0.01152277,0.00348336,-0
 .00094373,0.00118376,-0.00152920,0.00359029,-0.00698554,0.00239841,-0.
 00212227,0.00194907,-0.12977643,0.10063356,-0.00006919,0.00006108,0.00
 011718,0.00031014,-0.00016156,-0.00018453,-0.00002533,0.00009587,-0.00
 000162,0.00025418,-0.00013063,0.00081605,0.00073972,0.00579876,-0.0001
 4011,0.00022909,-0.00301167,-0.00058502,0.01086583,-0.00124125,0.00843
 383,0.00511917,0.00346036,0.00141187,-0.05609838,0.04172965,-0.0636254
 6,-0.03246582,0.01407517,-0.00035439,-0.00202270,0.00123807,0.00011619
 ,0.00035575,-0.00691376,-0.00012479,-0.00174831,0.00188844,-0.00069497
 ,0.07469487,-0.05175052,0.05642054,-0.00052938,0.00171200,0.00158226,0
 .00299474,-0.00308722,-0.00383616,0.00003451,0.00069589,0.00025443,-0.
 00692042,-0.00131470,0.00421913,0.00305210,-0.00018296,-0.00016449,0.0
 0412835,0.00533936,-0.00432732,-0.00146824,0.00470106,-0.00302627,-0.0
 5079070,-0.03250197,0.02945465,-0.01686942,-0.00710459,0.00745442,-0.2
 7026951,-0.10139589,0.09505782,-0.00581439,0.00001106,0.00036332,0.000
 20469,-0.00261688,0.00206507,0.00574756,0.00282570,-0.00295441,0.01083
 126,-0.00149135,-0.00008367,0.32627886,-0.00021809,0.00097418,0.000777
 69,0.00145241,-0.00184150,-0.00197371,0.00001706,0.00039404,0.00015229
 ,-0.00372740,-0.00015786,0.00267219,-0.00001521,0.00086705,-0.00277695
 ,0.00271951,-0.00236094,0.00498802,0.00736947,0.00132973,0.00213292,0.
 00359289,0.00584891,0.00191890,-0.04352863,-0.01480014,0.02134992,-0.1
 0128796,-0.11423316,0.06703478,-0.00066226,0.00110200,-0.00047980,-0.0
 0188813,-0.00262989,0.00249551,0.00017420,0.00386220,-0.00727426,0.001
 29016,0.00083235,-0.00506627,0.13502749,0.12113383,0.00040644,-0.00074
 682,-0.00079023,-0.00159115,0.00123106,0.00176222,-0.00003376,-0.00027
 212,-0.00011919,0.00335731,0.00104754,-0.00116581,-0.00020488,-0.00260
 319,-0.00069473,-0.00212504,0.00498014,0.00101699,-0.00499429,0.002329
 58,0.00307069,0.00142173,0.00449801,0.00509342,0.03525880,0.01859116,-
 0.00821123,0.09505296,0.06698569,-0.09552950,0.00091902,-0.00048291,0.
 00072965,0.00141418,0.00248763,-0.00163668,-0.00093183,-0.00749172,0.0
 0039600,-0.00205905,-0.00482698,-0.00161488,-0.12618456,-0.08601227,0.
 09775733,-0.00062857,0.00171186,-0.00232936,0.00222882,-0.00711041,0.0
 2966039,-0.04762183,0.00158821,-0.01949073,-0.00431895,-0.00101565,0.0
 0122876,-0.00082146,0.00119054,-0.00047695,-0.00006709,0.00010296,-0.0
 0013292,-0.00016784,-0.00047302,0.00039931,0.00000825,0.00010576,-0.00
 006922,0.00008345,0.00003685,-0.00007093,0.00009749,0.00006322,-0.0000
 4989,0.00011225,-0.00008016,0.00005842,0.00001300,0.00011938,-0.000083
 11,-0.00000279,-0.00009978,0.00008203,-0.00018209,0.00001883,-0.000006
 79,-0.00013621,-0.00007561,0.00006393,0.05001639,-0.00186131,-0.000754
 20,-0.00100738,0.00582264,-0.00103052,0.01313626,-0.00040009,-0.054007
 45,0.04367642,-0.00227175,-0.00058400,0.00116636,-0.00000560,0.0006734
 8,-0.00037115,-0.00008019,0.00005704,-0.00009471,-0.00005659,-0.000264
 19,0.00027644,0.00002101,0.00009159,-0.00006898,0.00008061,-0.00000389
 ,-0.00002225,0.00009304,0.00005987,-0.00004942,0.00005014,-0.00004331,
 0.00005036,-0.00001399,0.00008833,-0.00007180,-0.00000842,-0.00010241,
 0.00007954,-0.00014626,0.00002555,-0.00001526,-0.00012759,-0.00006696,
 0.00006106,0.00080159,0.06314227,0.00003041,-0.00180192,0.00211057,-0.
 00026640,0.00394078,-0.01268761,-0.01996647,0.04025416,-0.28511782,0.0
 0084015,0.00097831,0.00006731,0.00011708,-0.00028194,0.00001793,0.0000
 7377,-0.00002302,0.00003552,0.00003673,0.00012726,-0.00010350,0.000003
 88,-0.00002033,0.00000987,-0.00002431,-0.00001729,0.00002089,-0.000027
 43,-0.00001046,0.00000821,-0.00005721,0.00002655,-0.00000567,-0.000002
 63,-0.00002954,0.00002118,0.00000202,0.00002193,-0.00001882,0.00003878
 ,-0.00000271,0.00000007,0.00003550,0.00002005,-0.00001599,0.02175245,-
 0.03134227,0.31801449,0.00265215,-0.00164256,0.00216455,-0.02386868,0.
 01566953,-0.00799861,-0.20859686,0.11077295,-0.03848992,-0.00238235,-0
 .00183854,0.00171835,0.00048301,-0.00005373,0.00093272,-0.00047768,0.0
 0015855,-0.00009778,0.00012374,-0.00025459,0.00009177,0.00001403,0.000
 06370,-0.00008694,0.00012758,-0.00006500,0.00001710,0.00013925,0.00007
 208,-0.00003740,0.00017308,-0.00004044,0.00010404,-0.00004384,0.000173
 37,-0.00009305,-0.00002499,-0.00014031,0.00009300,-0.00013508,0.000039
 21,-0.00002098,-0.00017443,-0.00009478,0.00007422,-0.00159429,0.001290
 21,-0.00041227,0.22210426,-0.00059492,-0.00160863,0.00052192,-0.009651
 90,0.01028276,-0.00487912,0.10654766,-0.12302634,0.02799603,-0.0020201
 5,-0.00062394,0.00211057,0.00060124,-0.00005293,0.00067125,-0.00035850
 ,0.00008950,-0.00006474,0.00011142,-0.00018391,0.00008730,0.00002050,0
 .00004874,-0.00009285,0.00011426,-0.00005664,0.00001586,0.00011308,0.0
 0006114,-0.00003618,0.00012822,-0.00001902,0.00007158,-0.00003802,0.00
 013991,-0.00008340,-0.00002069,-0.00011962,0.00008491,-0.00011918,0.00
 003760,-0.00001855,-0.00014683,-0.00007772,0.00006468,0.00631049,-0.00
 164742,0.00268869,-0.12329662,0.15093655,-0.00190307,-0.00046332,-0.00
 057350,0.01390669,-0.00552396,0.00204813,-0.04068382,0.02730996,-0.053
 45029,0.00087525,0.00101725,-0.00127934,-0.00017319,0.00020257,-0.0007
 3814,0.00025112,-0.00002417,0.00004546,-0.00005250,0.00004959,0.000008
 99,-0.00001366,0.00000399,0.00002513,-0.00004086,0.00002438,-0.0000008
 0,-0.00003577,-0.00001429,-0.00000345,-0.00010619,-0.00000804,-0.00002
 466,0.00001552,-0.00007116,0.00002497,0.00001255,0.00003697,-0.0000236
 4,0.00002126,-0.00000907,0.00000672,0.00004451,0.00002618,-0.00001504,
 -0.02574446,0.01677578,-0.00623930,0.03831651,-0.02276376,0.05666910,-
 0.00962960,-0.00984245,0.00222425,0.00432486,-0.02590923,-0.02006148,-
 0.08424670,-0.02496603,0.00031779,-0.00491065,-0.00376842,0.00186577,0
 .00254187,0.00053557,-0.00168866,-0.00053027,0.00006746,-0.00015496,0.
 00004959,-0.00046646,0.00036830,0.00006807,0.00034238,-0.00018673,0.00
 036033,-0.00009485,0.00006627,0.00029876,0.00015446,-0.00017897,0.0001
 9023,-0.00014509,0.00013745,-0.00007559,0.00025176,-0.00027269,-0.0000
 3318,-0.00033128,0.00025679,-0.00039293,0.00011126,-0.00004251,-0.0004
 4238,-0.00022058,0.00022258,0.00158621,-0.00684161,-0.00280966,0.00742
 780,0.01917751,0.01443879,0.32076091,-0.00834786,-0.00649304,0.0009532
 9,0.00161592,-0.02313470,-0.01452446,0.00430684,-0.20948345,-0.0929211
 6,-0.00414564,-0.00030206,0.00274553,0.00228550,0.00118750,-0.00098362
 ,-0.00035636,0.00007224,-0.00025291,0.00005319,-0.00060080,0.00036822,
 0.00001933,0.00032663,-0.00022698,0.00034337,-0.00012687,0.00005797,0.
 00030070,0.00015897,-0.00015058,0.00017870,-0.00010053,0.00018604,-0.0
 0006843,0.00032214,-0.00025689,-0.00002235,-0.00030010,0.00022676,-0.0
 0037222,0.00011312,-0.00004831,-0.00044177,-0.00022617,0.00020835,-0.0
 0457364,-0.00904640,-0.01460045,-0.00117462,-0.03698460,-0.01813132,0.
 13698848,0.41399596,0.00343794,0.00219035,0.00089523,-0.00341397,0.005
 99084,0.00474101,0.01815622,-0.07104549,-0.12168287,0.00183122,0.00255
 478,0.00038256,-0.00064273,0.00036855,0.00061730,0.00014491,-0.0000155
 5,-0.00003533,0.00001398,0.00005185,-0.00010555,-0.00001283,-0.0000572
 3,0.00001700,-0.00007316,-0.00001230,-0.00003078,-0.00005863,-0.000004
 40,0.00003806,-0.00004549,0.00004143,0.00000757,0.00001888,-0.00003290
 ,0.00008308,0.00001127,0.00005793,-0.00004987,0.00006642,-0.00002160,0
 .00000768,0.00007988,0.00003354,-0.00004644,-0.00319146,-0.04073147,-0
 .01804602,0.00365227,-0.00571453,0.00376569,-0.08409742,0.09373553,0.2
 1607349,0.00333277,0.00307426,-0.00008713,-0.00465202,-0.00024092,0.00
 273004,-0.01208974,-0.01414631,-0.00364867,0.00208261,0.00036725,-0.00
 133811,-0.00089710,-0.00067891,0.00043113,0.00036874,-0.00009937,0.000
 12049,0.00000128,0.00042707,-0.00031102,-0.00004138,-0.00019493,0.0001
 4434,-0.00021796,0.00004558,-0.00002592,-0.00020069,-0.00011330,0.0001
 0827,-0.00014275,0.00009201,-0.00010475,0.00005063,-0.00018682,0.00015
 831,0.00002327,0.00021896,-0.00016535,0.00026961,-0.00006606,0.0000290
 6,0.00028679,0.00014821,-0.00013801,0.00149181,0.00361571,0.00257228,0
 .00417095,0.00564011,0.00177174,-0.18307882,-0.07771888,0.04306342,0.4
 9552682,-0.00062379,0.00006887,0.00021741,-0.00020549,-0.00468680,-0.0
 0247765,-0.03718502,-0.03901636,0.00732323,0.00137383,0.00101276,-0.00
 038411,-0.00077290,-0.00013328,0.00036418,0.00029917,-0.00003158,-0.00
 000006,0.00002369,0.00020388,-0.00016764,-0.00003218,-0.00010398,0.000
 05770,-0.00012583,0.00002008,-0.00001899,-0.00011245,-0.00005270,0.000
 06244,-0.00009743,0.00005819,-0.00002890,0.00003043,-0.00010138,0.0000
 9876,0.00001796,0.00011863,-0.00009381,0.00014361,-0.00003653,0.000016
 92,0.00016323,0.00008220,-0.00008049,0.00098830,0.00386223,0.00128661,
 -0.00188807,0.00278385,0.00108040,-0.04705136,-0.11085122,0.00450628,-
 0.03977092,0.58411222,-0.00248231,-0.00255027,0.00071434,0.00287561,-0
 .00224973,-0.00420278,-0.01795231,-0.01009574,0.00170134,-0.00061507,0
 .00038944,0.00073210,0.00031473,0.00027977,0.00012045,-0.00011853,0.00
 003825,-0.00007475,0.00004940,-0.00016120,0.00010416,0.00002225,0.0000
 7022,-0.00005480,0.00007523,-0.00003394,-0.00000041,0.00007701,0.00004
 680,-0.00003919,0.00002644,-0.00002048,0.00005458,-0.00002269,0.000077
 04,-0.00005249,-0.00001201,-0.00008762,0.00006280,-0.00010610,0.000028
 12,-0.00001217,-0.00010210,-0.00005319,0.00004625,-0.00245778,-0.00402
 123,0.00182513,0.00073085,-0.00106708,0.00026520,0.06185876,0.02735274
 ,-0.09027089,0.02420358,0.04370587,0.56950729,-0.00018135,-0.00023424,
 -0.00003139,0.00016722,0.00046232,-0.00004189,0.00152672,0.00393243,0.
 00389869,-0.00032331,-0.00023073,0.00009700,0.00016032,0.00003242,-0.0
 0014832,-0.00006978,0.00001509,-0.00000743,-0.00000830,-0.00006161,0.0
 0005444,0.00000679,0.00002655,-0.00001646,0.00003197,-0.00000078,0.000
 00628,0.00002888,0.00001358,-0.00001656,0.00002767,-0.00001736,0.00000
 899,-0.00000624,0.00002800,-0.00003041,-0.00000377,-0.00003025,0.00002
 390,-0.00003782,0.00000926,-0.00000405,-0.00004158,-0.00002071,0.00002
 114,0.00019907,0.00031513,-0.00134254,-0.00042548,-0.00043958,-0.00051
 899,-0.00859244,-0.01637605,0.03504253,-0.05081002,0.00472750,-0.02642
 564,0.05778100,-0.00001763,-0.00003762,-0.00000495,-0.00014239,0.00018
 158,-0.00009742,0.00089959,0.00288963,0.00453392,-0.00005661,-0.000148
 21,-0.00002664,0.00009157,-0.00000195,-0.00009359,-0.00002690,0.000003
 51,0.00000156,-0.00000630,-0.00001678,0.00001769,0.00000162,0.00000944
 ,-0.00000537,0.00001236,0.00000092,0.00000369,0.00001102,0.00000444,-0
 .00000609,0.00001108,-0.00000728,0.00000100,-0.00000268,0.00000775,-0.
 00001158,-0.00000117,-0.00001080,0.00000895,-0.00001313,0.00000335,-0.
 00000129,-0.00001576,-0.00000776,0.00000826,0.00018531,0.00017177,-0.0
 0110484,0.00016449,-0.00033057,-0.00013055,-0.00941605,-0.00822044,0.0
 1880337,0.00482921,-0.05880704,0.03947104,0.00269772,0.05933433,0.0004
 4235,0.00051550,-0.00003110,-0.00058029,-0.00028943,0.00059436,-0.0000
 0992,-0.00298100,0.00176693,0.00024590,0.00009064,-0.00013192,-0.00023
 609,-0.00006679,0.00009050,0.00006951,-0.00001076,0.00001337,-0.000005
 25,0.00006557,-0.00004694,-0.00000795,-0.00003324,0.00002150,-0.000038
 78,0.00001047,-0.00000801,-0.00003456,-0.00001789,0.00001906,-0.000021
 49,0.00001478,-0.00001326,0.00000920,-0.00003507,0.00003122,0.00000480
 ,0.00003607,-0.00002771,0.00004423,-0.00001235,0.00000575,0.00004988,0
 .00002522,-0.00002402,0.00064155,0.00183661,0.00004860,-0.00027439,0.0
 0036631,-0.00029802,0.01139166,0.00826905,-0.00843639,-0.02179168,0.04
 178714,-0.29198079,0.01378804,-0.05280785,0.31742693,-0.00101609,-0.00
 082090,0.00011672,0.00142677,-0.00094660,-0.00121168,-0.00436796,-0.00
 181302,0.00251574,-0.00028693,0.00008020,0.00024067,0.00014492,0.00012
 410,-0.00006322,-0.00004288,0.00001489,-0.00002501,0.00000601,-0.00006
 966,0.00004847,0.00000600,0.00002891,-0.00002306,0.00003172,-0.0000093
 2,0.00000258,0.00002994,0.00001793,-0.00001579,0.00001612,-0.00001180,
 0.00001835,-0.00000698,0.00003185,-0.00002569,-0.00000335,-0.00003242,
 0.00002429,-0.00004185,0.00001116,-0.00000450,-0.00004224,-0.00002171,
 0.00002011,-0.00009356,0.00009332,-0.00012167,0.00013715,-0.00046880,0
 .00006292,-0.00687757,-0.03320764,-0.01491421,-0.04742939,0.00912900,0
 .00413523,0.00068767,-0.00202630,-0.00250005,0.05535996,-0.00074342,-0
 .00080503,0.00012129,0.00112769,0.00001917,-0.00119746,-0.00306409,0.0
 0114396,0.00273764,-0.00047492,-0.00005075,0.00036342,0.00019208,0.000
 11640,-0.00005999,-0.00007630,0.00002066,-0.00002743,0.00000544,-0.000
 08366,0.00006032,0.00000877,0.00003413,-0.00002559,0.00003906,-0.00000
 932,0.00000300,0.00003898,0.00002131,-0.00002005,0.00002608,-0.0000159
 1,0.00002185,-0.00000947,0.00003839,-0.00003117,-0.00000506,-0.0000422
 8,0.00003164,-0.00005112,0.00001297,-0.00000543,-0.00005340,-0.0000274
 7,0.00002548,-0.00000306,-0.00005769,-0.00022509,0.00011043,0.00015995
 ,0.00004196,-0.00639429,-0.01888449,-0.00700933,-0.00085312,-0.2475679
 0,-0.12025938,0.00092243,0.00707616,0.00337105,0.00903221,0.27119869,0
 .00019720,0.00020901,-0.00014749,0.00007580,0.00035538,0.00073785,0.00
 170675,0.00175454,0.00023979,-0.00011444,-0.00006660,0.00000825,-0.000
 01492,0.00000104,-0.00001731,-0.00000506,0.00000195,0.00000349,-0.0000
 0540,-0.00000909,0.00000791,0.00000030,0.00000014,0.00000022,0.0000011
 2,0.00000288,-0.00000008,0.00000130,-0.00000036,-0.00000078,0.00000261
 ,-0.00000157,-0.00000205,0.00000026,0.00000180,-0.00000213,-0.00000042
 ,-0.00000031,0.00000066,-0.00000244,0.00000016,-0.00000008,-0.00000153
 ,-0.00000061,0.00000093,0.00021936,0.00025079,0.00032835,0.00001722,-0
 .00008232,-0.00012613,0.00145047,0.01292772,0.00716226,-0.00195746,-0.
 12766815,-0.12581163,0.00062601,-0.02609060,-0.01339919,-0.00199835,0.
 13113207,0.12672098,-0.00045814,-0.00049005,-0.00002273,0.00088824,0.0
 0017038,0.00001452,0.00109927,0.00530213,0.00244266,-0.00036702,-0.000
 21129,0.00010402,0.00028115,0.00006853,-0.00017186,-0.00010160,0.00001
 572,-0.00001472,-0.00000319,-0.00007341,0.00006100,0.00001174,0.000042
 18,-0.00002310,0.00004586,-0.00000678,0.00000648,0.00004186,0.00002035
 ,-0.00002477,0.00003795,-0.00002305,0.00001553,-0.00001139,0.00003272,
 -0.00003418,-0.00000579,-0.00004647,0.00003666,-0.00005460,0.00001332,
 -0.00000558,-0.00005996,-0.00003032,0.00003013,-0.00020205,-0.00037000
 ,-0.00047245,0.00017068,-0.00160929,-0.00044435,-0.03879849,0.00071342
 ,0.00093097,-0.20804542,0.11096874,-0.04407455,-0.00011721,0.00282094,
 -0.00118666,0.00236252,0.00022507,-0.00019838,0.24328559,0.00020917,0.
 00020444,-0.00000688,-0.00034030,0.00007924,0.00038929,-0.00304148,0.0
 0529175,-0.00007721,-0.00002309,-0.00011871,-0.00007691,0.00003206,-0.
 00007429,-0.00000028,-0.00001474,-0.00000495,0.00001487,0.00000126,0.0
 0001119,-0.00000454,0.00000455,-0.00000539,0.00000647,-0.00000300,0.00
 000200,0.00000018,-0.00000371,-0.00000304,0.00000124,-0.00000144,0.000
 00072,-0.00000711,-0.00000022,-0.00000194,-0.00000054,-0.00000155,0.00
 000301,-0.00000156,0.00000397,-0.00000076,0.00000018,0.00000512,0.0000
 0309,-0.00000213,0.00020803,-0.00056371,0.00011552,0.00197474,0.000191
 35,0.00057059,-0.02218117,0.00857829,-0.00368966,0.11561118,-0.1309341
 5,0.02914056,0.00422890,-0.00209445,-0.00013401,0.02086458,-0.01229730
 ,0.00728212,-0.11753286,0.13173362,0.00010535,0.00015103,0.00000597,-0
 .00017216,-0.00027289,0.00000990,-0.00057264,-0.00102628,-0.00021615,0
 .00018715,0.00008723,-0.00010338,-0.00007383,-0.00000647,0.00002467,0.
 00003954,-0.00000825,0.00000557,-0.00000259,0.00002779,-0.00002473,-0.
 00000496,-0.00001203,0.00000746,-0.00001528,0.00000299,-0.00000137,-0.
 00001412,-0.00000718,0.00000771,-0.00001332,0.00000688,-0.00000567,0.0
 0000422,-0.00001413,0.00001369,0.00000248,0.00001563,-0.00001206,0.000
 01863,-0.00000460,0.00000214,0.00001963,0.00000985,-0.00000974,-0.0000
 0261,0.00048631,-0.00027336,-0.00040129,0.00012344,-0.00008707,0.01489
 418,-0.00493451,0.00491322,-0.04576458,0.03041287,-0.06263373,-0.02498
 332,0.01753131,-0.00562087,0.01371816,-0.00904880,0.00429617,0.0430313
 5,-0.03352018,0.05970162\\-0.00000195,0.00000303,-0.00000232,0.0000037
 6,-0.00001175,0.00002356,-0.00000142,0.00002582,-0.00001385,-0.0000033
 0,-0.00000297,-0.00000944,0.00001013,-0.00000729,0.00000374,0.00000221
 ,0.00002831,-0.00001748,0.00000257,-0.00002547,0.00001440,-0.00001074,
 -0.00000642,0.00000852,-0.00001577,0.00001808,-0.00001563,-0.00001174,
 -0.00001775,0.00001054,0.00000825,-0.00000642,0.00001136,-0.00000266,0
 .00001445,-0.00002014,0.00000111,0.00000836,-0.00000073,0.00001049,-0.
 00000746,-0.00000535,0.00000818,0.00000471,-0.00000665,0.00000608,0.00
 000038,0.00001183,0.00000463,-0.00000415,0.00000914,0.00000473,-0.0000
 1241,-0.00000296,-0.00001967,-0.00000693,0.00000474,0.00000393,-0.0000
 0222,-0.00000081,0.00000023,0.00000425,-0.00000538,0.00000095,0.000003
 85,0.00000289\\\@


 OF ALL THE WONDERS OF THE UNIVERSE, THE GREATEST IS MAN.

                                    -- ARISTOTLE
 Job cpu time:       0 days  5 hours 37 minutes 26.2 seconds.
 Elapsed time:       0 days  0 hours 14 minutes  4.8 seconds.
 File lengths (MBytes):  RWF=    692 Int=      0 D2E=      0 Chk=     33 Scr=      1
 Normal termination of Gaussian 16 at Mon Aug 19 19:18:53 2024.
