 Entering Gaussian System, Link 0=g16
 Input=input.com
 Output=input.log
 Initial command:
 /opt/apps/g16_avx2/tar//g16/l1.exe "/scratch/Gau-69353.inp" -scrdir="/scratch/"
 Entering Link 1 = /opt/apps/g16_avx2/tar//g16/l1.exe PID=     69354.
  
 Copyright (c) 1988-2017, Gaussian, Inc.  All Rights Reserved.
  
 This is part of the Gaussian(R) 16 program.  It is based on
 the Gaussian(R) 09 system (copyright 2009, Gaussian, Inc.),
 the Gaussian(R) 03 system (copyright 2003, Gaussian, Inc.),
 the Gaussian(R) 98 system (copyright 1998, Gaussian, Inc.),
 the Gaussian(R) 94 system (copyright 1995, Gaussian, Inc.),
 the Gaussian 92(TM) system (copyright 1992, Gaussian, Inc.),
 the Gaussian 90(TM) system (copyright 1990, Gaussian, Inc.),
 the Gaussian 88(TM) system (copyright 1988, Gaussian, Inc.),
 the Gaussian 86(TM) system (copyright 1986, Carnegie Mellon
 University), and the Gaussian 82(TM) system (copyright 1983,
 Carnegie Mellon University). Gaussian is a federally registered
 trademark of Gaussian, Inc.
  
 This software contains proprietary and confidential information,
 including trade secrets, belonging to Gaussian, Inc.
  
 This software is provided under written license and may be
 used, copied, transmitted, or stored only in accord with that
 written license.
  
 The following legend is applicable only to US Government
 contracts under FAR:
  
                    RESTRICTED RIGHTS LEGEND
  
 Use, reproduction and disclosure by the US Government is
 subject to restrictions as set forth in subparagraphs (a)
 and (c) of the Commercial Computer Software - Restricted
 Rights clause in FAR 52.227-19.
  
 Gaussian, Inc.
 340 Quinnipiac St., Bldg. 40, Wallingford CT 06492
  
  
 ---------------------------------------------------------------
 Warning -- This program may not be used in any manner that
 competes with the business of Gaussian, Inc. or will provide
 assistance to any competitor of Gaussian, Inc.  The licensee
 of this program is prohibited from giving any competitor of
 Gaussian, Inc. access to this program.  By using this program,
 the user acknowledges that Gaussian, Inc. is engaged in the
 business of creating and licensing software in the field of
 computational chemistry and represents and warrants to the
 licensee that it is not a competitor of Gaussian, Inc. and that
 it will not use this program in any manner prohibited above.
 ---------------------------------------------------------------
  

 Cite this work as:
 Gaussian 16, Revision B.01,
 M. J. Frisch, G. W. Trucks, H. B. Schlegel, G. E. Scuseria, 
 M. A. Robb, J. R. Cheeseman, G. Scalmani, V. Barone, 
 G. A. Petersson, H. Nakatsuji, X. Li, M. Caricato, A. V. Marenich, 
 J. Bloino, B. G. Janesko, R. Gomperts, B. Mennucci, H. P. Hratchian, 
 J. V. Ortiz, A. F. Izmaylov, J. L. Sonnenberg, D. Williams-Young, 
 F. Ding, F. Lipparini, F. Egidi, J. Goings, B. Peng, A. Petrone, 
 T. Henderson, D. Ranasinghe, V. G. Zakrzewski, J. Gao, N. Rega, 
 G. Zheng, W. Liang, M. Hada, M. Ehara, K. Toyota, R. Fukuda, 
 J. Hasegawa, M. Ishida, T. Nakajima, Y. Honda, O. Kitao, H. Nakai, 
 T. Vreven, K. Throssell, J. A. Montgomery, Jr., J. E. Peralta, 
 F. Ogliaro, M. J. Bearpark, J. J. Heyd, E. N. Brothers, K. N. Kudin, 
 V. N. Staroverov, T. A. Keith, R. Kobayashi, J. Normand, 
 K. Raghavachari, A. P. Rendell, J. C. Burant, S. S. Iyengar, 
 J. Tomasi, M. Cossi, J. M. Millam, M. Klene, C. Adamo, R. Cammi, 
 J. W. Ochterski, R. L. Martin, K. Morokuma, O. Farkas, 
 J. B. Foresman, and D. J. Fox, Gaussian, Inc., Wallingford CT, 2016.
 
 ******************************************
 Gaussian 16:  ES64L-G16RevB.01 20-Dec-2017
                25-Feb-2025 
 ******************************************
 %nprocshared=12
 Will use up to   12 processors via shared memory.
 %mem=32GB
 %chk=water.chk
 ------------------------------------------------
 # opt freq b3lyp/6-311++g(d,p) geom=connectivity
 ------------------------------------------------
 1/18=20,19=15,26=3,38=1,57=2/1,3;
 2/9=110,12=2,17=6,18=5,40=1/2;
 3/5=4,6=6,7=1111,11=2,25=1,30=1,71=1,74=-5/1,2,3;
 4//1;
 5/5=2,38=5/2;
 6/7=2,8=2,9=2,10=2,28=1/1;
 7//1,2,3,16;
 1/18=20,19=15,26=3/3(2);
 2/9=110/2;
 99//99;
 2/9=110/2;
 3/5=4,6=6,7=1111,11=2,25=1,30=1,71=1,74=-5/1,2,3;
 4/5=5,16=3,69=1/1;
 5/5=2,38=5/2;
 7//1,2,3,16;
 1/18=20,19=15,26=3/3(-5);
 2/9=110/2;
 6/7=2,8=2,9=2,10=2,19=2,28=1/1;
 99/9=1/99;
 -------------------
 Title Card Required
 -------------------
 Symbolic Z-matrix:
 Charge =  0 Multiplicity = 1
 O                    -0.92926  -0.18724   0. 
 H                     0.03074  -0.18724   0. 
 H                    -1.24972   0.7177    0. 
 

 GradGradGradGradGradGradGradGradGradGradGradGradGradGradGradGradGradGrad
 Berny optimization.
 Initialization pass.
                           ----------------------------
                           !    Initial Parameters    !
                           ! (Angstroms and Degrees)  !
 --------------------------                            --------------------------
 ! Name  Definition              Value          Derivative Info.                !
 --------------------------------------------------------------------------------
 ! R1    R(1,2)                  0.96           estimate D2E/DX2                !
 ! R2    R(1,3)                  0.96           estimate D2E/DX2                !
 ! A1    A(2,1,3)              109.5            estimate D2E/DX2                !
 --------------------------------------------------------------------------------
 Trust Radius=3.00D-01 FncErr=1.00D-07 GrdErr=1.00D-06 EigMax=2.50D+02 EigMin=1.00D-04
 Number of steps in this run=     20 maximum allowed number of steps=    100.
 GradGradGradGradGradGradGradGradGradGradGradGradGradGradGradGradGradGrad

                          Input orientation:                          
 ---------------------------------------------------------------------
 Center     Atomic      Atomic             Coordinates (Angstroms)
 Number     Number       Type             X           Y           Z
 ---------------------------------------------------------------------
      1          8           0       -0.929265   -0.187240    0.000000
      2          1           0        0.030735   -0.187240    0.000000
      3          1           0       -1.249720    0.717696    0.000000
 ---------------------------------------------------------------------
                    Distance matrix (angstroms):
                    1          2          3
     1  O    0.000000
     2  H    0.960000   0.000000
     3  H    0.960000   1.567952   0.000000
 Stoichiometry    H2O
 Framework group  C2V[C2(O),SGV(H2)]
 Deg. of freedom     2
 Full point group                 C2V     NOp   4
 Largest Abelian subgroup         C2V     NOp   4
 Largest concise Abelian subgroup C2      NOp   2
                         Standard orientation:                         
 ---------------------------------------------------------------------
 Center     Atomic      Atomic             Coordinates (Angstroms)
 Number     Number       Type             X           Y           Z
 ---------------------------------------------------------------------
      1          8           0        0.000000   -0.000000    0.110812
      2          1           0        0.000000    0.783976   -0.443248
      3          1           0       -0.000000   -0.783976   -0.443248
 ---------------------------------------------------------------------
 Rotational constants (GHZ):         919.6759688         407.9403309         282.5913776
 Standard basis: 6-311++G(d,p) (5D, 7F)
 There are    18 symmetry adapted cartesian basis functions of A1  symmetry.
 There are     2 symmetry adapted cartesian basis functions of A2  symmetry.
 There are     6 symmetry adapted cartesian basis functions of B1  symmetry.
 There are    11 symmetry adapted cartesian basis functions of B2  symmetry.
 There are    17 symmetry adapted basis functions of A1  symmetry.
 There are     2 symmetry adapted basis functions of A2  symmetry.
 There are     6 symmetry adapted basis functions of B1  symmetry.
 There are    11 symmetry adapted basis functions of B2  symmetry.
    36 basis functions,    54 primitive gaussians,    37 cartesian basis functions
     5 alpha electrons        5 beta electrons
       nuclear repulsion energy         9.1571160303 Hartrees.
 NAtoms=    3 NActive=    3 NUniq=    2 SFac= 2.25D+00 NAtFMM=   60 NAOKFM=F Big=F
 Integral buffers will be    131072 words long.
 Raffenetti 2 integral format.
 Two-electron integral symmetry is turned on.
 One-electron integrals computed using PRISM.
 NBasis=    36 RedAO= T EigKep=  3.83D-03  NBF=    17     2     6    11
 NBsUse=    36 1.00D-06 EigRej= -1.00D+00 NBFU=    17     2     6    11
 ExpMin= 3.60D-02 ExpMax= 8.59D+03 ExpMxC= 1.30D+03 IAcc=3 IRadAn=         5 AccDes= 0.00D+00
 Harris functional with IExCor=  402 and IRadAn=       5 diagonalized for initial guess.
 HarFok:  IExCor=  402 AccDes= 0.00D+00 IRadAn=         5 IDoV= 1 UseB2=F ITyADJ=14
 ICtDFT=  3500011 ScaDFX=  1.000000  1.000000  1.000000  1.000000
 FoFCou: FMM=F IPFlag=           0 FMFlag=      100000 FMFlg1=           0
         NFxFlg=           0 DoJE=T BraDBF=F KetDBF=T FulRan=T
         wScrn=  0.000000 ICntrl=       500 IOpCl=  0 I1Cent=   200000004 NGrid=           0
         NMat0=    1 NMatS0=      1 NMatT0=    0 NMatD0=    1 NMtDS0=    0 NMtDT0=    0
 Petite list used in FoFCou.
 Initial guess orbital symmetries:
       Occupied  (A1) (A1) (B2) (A1) (B1)
       Virtual   (A1) (B2) (A1) (B1) (B2) (A1) (B2) (A1) (B2) (A1)
                 (A1) (B1) (B2) (A2) (A1) (A1) (B1) (B2) (B2) (A1)
                 (A1) (B2) (B1) (A2) (A1) (A1) (B2) (B1) (A1) (B2)
                 (A1)
 The electronic state of the initial guess is 1-A1.
 Keep R1 ints in memory in symmetry-blocked form, NReq=10594171.
 Requested convergence on RMS density matrix=1.00D-08 within 128 cycles.
 Requested convergence on MAX density matrix=1.00D-06.
 Requested convergence on             energy=1.00D-06.
 No special actions if energy rises.
 SCF Done:  E(RB3LYP) =  -76.4580942451     A.U. after    8 cycles
            NFock=  8  Conv=0.32D-08     -V/T= 2.0031

 **********************************************************************

            Population analysis using the SCF Density.

 **********************************************************************

 Orbital symmetries:
       Occupied  (A1) (A1) (B2) (A1) (B1)
       Virtual   (A1) (B2) (A1) (B1) (A1) (B2) (B2) (A1) (B2) (A1)
                 (A1) (B1) (B2) (A2) (A1) (A1) (B1) (B2) (B2) (A1)
                 (A1) (B2) (B1) (A2) (A1) (A1) (B2) (B1) (A1) (B2)
                 (A1)
 The electronic state is 1-A1.
 Alpha  occ. eigenvalues --  -19.13129  -1.02105  -0.55180  -0.38876  -0.32226
 Alpha virt. eigenvalues --   -0.02258   0.02896   0.13790   0.15132   0.15155
 Alpha virt. eigenvalues --    0.15684   0.21934   0.22288   0.50785   0.53507
 Alpha virt. eigenvalues --    0.95409   0.99345   0.99835   1.23776   1.26753
 Alpha virt. eigenvalues --    1.37409   1.48235   1.62918   2.00516   2.11148
 Alpha virt. eigenvalues --    2.41472   2.54948   3.06681   3.15344   3.29358
 Alpha virt. eigenvalues --    3.70236   3.85967   4.92261   5.27274   5.64925
 Alpha virt. eigenvalues --   49.85861
          Condensed to atoms (all electrons):
               1          2          3
     1  O    7.871909   0.323798   0.323798
     2  H    0.323798   0.442611  -0.026162
     3  H    0.323798  -0.026162   0.442611
 Mulliken charges:
               1
     1  O   -0.519506
     2  H    0.259753
     3  H    0.259753
 Sum of Mulliken charges =  -0.00000
 Mulliken charges with hydrogens summed into heavy atoms:
               1
     1  O   -0.000000
 Electronic spatial extent (au):  <R**2>=             20.0782
 Charge=             -0.0000 electrons
 Dipole moment (field-independent basis, Debye):
    X=             -0.0000    Y=              0.0000    Z=             -2.0918  Tot=              2.0918
 Quadrupole moment (field-independent basis, Debye-Ang):
   XX=             -7.8124   YY=             -4.2540   ZZ=             -6.6760
   XY=              0.0000   XZ=              0.0000   YZ=             -0.0000
 Traceless Quadrupole moment (field-independent basis, Debye-Ang):
   XX=             -1.5649   YY=              1.9935   ZZ=             -0.4285
   XY=              0.0000   XZ=              0.0000   YZ=             -0.0000
 Octapole moment (field-independent basis, Debye-Ang**2):
  XXX=              0.0000  YYY=              0.0000  ZZZ=             -1.4345  XYY=             -0.0000
  XXY=              0.0000  XXZ=             -0.4329  XZZ=              0.0000  YZZ=              0.0000
  YYZ=             -1.3565  XYZ=             -0.0000
 Hexadecapole moment (field-independent basis, Debye-Ang**3):
 XXXX=             -7.7182 YYYY=             -6.4471 ZZZZ=             -8.1336 XXXY=             -0.0000
 XXXZ=             -0.0000 YYYX=             -0.0000 YYYZ=             -0.0000 ZZZX=             -0.0000
 ZZZY=              0.0000 XXYY=             -2.6964 XXZZ=             -2.6862 YYZZ=             -2.1744
 XXYZ=              0.0000 YYXZ=              0.0000 ZZXY=             -0.0000
 N-N= 9.157116030293D+00 E-N=-1.992010390075D+02  KE= 7.622347615876D+01
 Symmetry A1   KE= 6.803550702825D+01
 Symmetry A2   KE= 1.240543102227D-35
 Symmetry B1   KE= 4.530856805229D+00
 Symmetry B2   KE= 3.657112325278D+00
 Calling FoFJK, ICntrl=      2127 FMM=F ISym2X=1 I1Cent= 0 IOpClX= 0 NMat=1 NMatS=1 NMatT=0.
 ***** Axes restored to original set *****
 -------------------------------------------------------------------
 Center     Atomic                   Forces (Hartrees/Bohr)
 Number     Number              X              Y              Z
 -------------------------------------------------------------------
      1        8          -0.005741398   -0.008123891    0.000000000
      2        1          -0.000063250    0.006135456   -0.000000000
      3        1           0.005804648    0.001988435   -0.000000000
 -------------------------------------------------------------------
 Cartesian Forces:  Max     0.008123891 RMS     0.004400213

 GradGradGradGradGradGradGradGradGradGradGradGradGradGradGradGradGradGrad
 Berny optimization.
 FormGI is forming the generalized inverse of G from B-inverse, IUseBI=4.
 Internal  Forces:  Max     0.011130558 RMS     0.006426438
 Search for a local minimum.
 Step number   1 out of a maximum of   20
 All quantities printed in internal units (Hartrees-Bohrs-Radians)
 Mixed Optimization -- RFO/linear search
 Second derivative matrix not updated -- first step.
 The second derivative matrix:
                          R1        R2        A1
           R1           0.55473
           R2           0.00000   0.55473
           A1           0.00000   0.00000   0.16000
 ITU=  0
     Eigenvalues ---    0.16000   0.55473   0.55473
 RFO step:  Lambda=-7.70611252D-04 EMin= 1.60000000D-01
 Linear search not attempted -- first point.
 Iteration  1 RMS(Cart)=  0.03824787 RMS(Int)=  0.00088726
 Iteration  2 RMS(Cart)=  0.00077978 RMS(Int)=  0.00000001
 Iteration  3 RMS(Cart)=  0.00000001 RMS(Int)=  0.00000000
 ClnCor:  largest displacement from symmetrization is 9.69D-16 for atom     1.
 Variable       Old X    -DE/DX   Delta X   Delta X   Delta X     New X
                                 (Linear)    (Quad)   (Total)
    R1        1.81414  -0.00006   0.00000  -0.00011  -0.00011   1.81402
    R2        1.81414  -0.00006   0.00000  -0.00011  -0.00011   1.81402
    A1        1.91114  -0.01113   0.00000  -0.06923  -0.06923   1.84190
         Item               Value     Threshold  Converged?
 Maximum Force            0.011131     0.000450     NO 
 RMS     Force            0.006426     0.000300     NO 
 Maximum Displacement     0.040121     0.001800     NO 
 RMS     Displacement     0.038623     0.001200     NO 
 Predicted change in Energy=-3.871524D-04
 GradGradGradGradGradGradGradGradGradGradGradGradGradGradGradGradGradGrad

                          Input orientation:                          
 ---------------------------------------------------------------------
 Center     Atomic      Atomic             Coordinates (Angstroms)
 Number     Number       Type             X           Y           Z
 ---------------------------------------------------------------------
      1          8           0       -0.939563   -0.201811   -0.000000
      2          1           0        0.019802   -0.168588   -0.000000
      3          1           0       -1.228488    0.713616    0.000000
 ---------------------------------------------------------------------
                    Distance matrix (angstroms):
                    1          2          3
     1  O    0.000000
     2  H    0.959940   0.000000
     3  H    0.959940   1.528565   0.000000
 Stoichiometry    H2O
 Framework group  C2V[C2(O),SGV(H2)]
 Deg. of freedom     2
 Full point group                 C2V     NOp   4
 Largest Abelian subgroup         C2V     NOp   4
 Largest concise Abelian subgroup C2      NOp   2
                         Standard orientation:                         
 ---------------------------------------------------------------------
 Center     Atomic      Atomic             Coordinates (Angstroms)
 Number     Number       Type             X           Y           Z
 ---------------------------------------------------------------------
      1          8           0        0.000000    0.000000    0.116165
      2          1           0        0.000000    0.764283   -0.464659
      3          1           0       -0.000000   -0.764283   -0.464659
 ---------------------------------------------------------------------
 Rotational constants (GHZ):         836.8709822         429.2339828         283.7153907
 Standard basis: 6-311++G(d,p) (5D, 7F)
 There are    18 symmetry adapted cartesian basis functions of A1  symmetry.
 There are     2 symmetry adapted cartesian basis functions of A2  symmetry.
 There are     6 symmetry adapted cartesian basis functions of B1  symmetry.
 There are    11 symmetry adapted cartesian basis functions of B2  symmetry.
 There are    17 symmetry adapted basis functions of A1  symmetry.
 There are     2 symmetry adapted basis functions of A2  symmetry.
 There are     6 symmetry adapted basis functions of B1  symmetry.
 There are    11 symmetry adapted basis functions of B2  symmetry.
    36 basis functions,    54 primitive gaussians,    37 cartesian basis functions
     5 alpha electrons        5 beta electrons
       nuclear repulsion energy         9.1663658694 Hartrees.
 NAtoms=    3 NActive=    3 NUniq=    2 SFac= 2.25D+00 NAtFMM=   60 NAOKFM=F Big=F
 Integral buffers will be    131072 words long.
 Raffenetti 2 integral format.
 Two-electron integral symmetry is turned on.
 One-electron integrals computed using PRISM.
 NBasis=    36 RedAO= T EigKep=  3.55D-03  NBF=    17     2     6    11
 NBsUse=    36 1.00D-06 EigRej= -1.00D+00 NBFU=    17     2     6    11
 Initial guess from the checkpoint file:  "water.chk"
 B after Tr=     0.000000   -0.000000   -0.000000
         Rot=    1.000000    0.000000    0.000000   -0.000000 Ang=   0.00 deg.
 Initial guess orbital symmetries:
       Occupied  (A1) (A1) (B2) (A1) (B1)
       Virtual   (A1) (B2) (A1) (B1) (A1) (B2) (B2) (A1) (B2) (A1)
                 (A1) (B1) (B2) (A2) (A1) (A1) (B1) (B2) (B2) (A1)
                 (A1) (B2) (B1) (A2) (A1) (A1) (B2) (B1) (A1) (B2)
                 (A1)
 ExpMin= 3.60D-02 ExpMax= 8.59D+03 ExpMxC= 1.30D+03 IAcc=3 IRadAn=         5 AccDes= 0.00D+00
 Harris functional with IExCor=  402 and IRadAn=       5 diagonalized for initial guess.
 HarFok:  IExCor=  402 AccDes= 0.00D+00 IRadAn=         5 IDoV= 1 UseB2=F ITyADJ=14
 ICtDFT=  3500011 ScaDFX=  1.000000  1.000000  1.000000  1.000000
 FoFCou: FMM=F IPFlag=           0 FMFlag=      100000 FMFlg1=           0
         NFxFlg=           0 DoJE=T BraDBF=F KetDBF=T FulRan=T
         wScrn=  0.000000 ICntrl=       500 IOpCl=  0 I1Cent=   200000004 NGrid=           0
         NMat0=    1 NMatS0=      1 NMatT0=    0 NMatD0=    1 NMtDS0=    0 NMtDT0=    0
 Petite list used in FoFCou.
 Keep R1 ints in memory in symmetry-blocked form, NReq=10594171.
 Requested convergence on RMS density matrix=1.00D-08 within 128 cycles.
 Requested convergence on MAX density matrix=1.00D-06.
 Requested convergence on             energy=1.00D-06.
 No special actions if energy rises.
 SCF Done:  E(RB3LYP) =  -76.4585199762     A.U. after    7 cycles
            NFock=  7  Conv=0.33D-08     -V/T= 2.0030
 Calling FoFJK, ICntrl=      2127 FMM=F ISym2X=1 I1Cent= 0 IOpClX= 0 NMat=1 NMatS=1 NMatT=0.
 ***** Axes restored to original set *****
 -------------------------------------------------------------------
 Center     Atomic                   Forces (Hartrees/Bohr)
 Number     Number              X              Y              Z
 -------------------------------------------------------------------
      1        8          -0.001865647   -0.002639830    0.000000000
      2        1           0.001903207    0.000634116   -0.000000000
      3        1          -0.000037560    0.002005714   -0.000000000
 -------------------------------------------------------------------
 Cartesian Forces:  Max     0.002639830 RMS     0.001433641

 GradGradGradGradGradGradGradGradGradGradGradGradGradGradGradGradGradGrad
 Berny optimization.
 Using GEDIIS/GDIIS optimizer.
 FormGI is forming the generalized inverse of G from B-inverse, IUseBI=4.
 Internal  Forces:  Max     0.001924013 RMS     0.001679763
 Search for a local minimum.
 Step number   2 out of a maximum of   20
 All quantities printed in internal units (Hartrees-Bohrs-Radians)
 Mixed Optimization -- RFO/linear search
 Update second derivatives using D2CorX and points    1    2
 DE= -4.26D-04 DEPred=-3.87D-04 R= 1.10D+00
 TightC=F SS=  1.41D+00  RLast= 6.92D-02 DXNew= 5.0454D-01 2.0770D-01
 Trust test= 1.10D+00 RLast= 6.92D-02 DXMaxT set to 3.00D-01
 The second derivative matrix:
                          R1        R2        A1
           R1           0.56037
           R2           0.00564   0.56037
           A1           0.02777   0.02777   0.14580
 ITU=  1  0
 Use linear search instead of GDIIS.
     Eigenvalues ---    0.14216   0.55473   0.56965
 RFO step:  Lambda=-1.61476333D-05 EMin= 1.42160311D-01
 Quartic linear search produced a step of  0.09672.
 Iteration  1 RMS(Cart)=  0.00405654 RMS(Int)=  0.00001589
 Iteration  2 RMS(Cart)=  0.00001767 RMS(Int)=  0.00000000
 Iteration  3 RMS(Cart)=  0.00000000 RMS(Int)=  0.00000000
 ClnCor:  largest displacement from symmetrization is 5.80D-16 for atom     2.
 Variable       Old X    -DE/DX   Delta X   Delta X   Delta X     New X
                                 (Linear)    (Quad)   (Total)
    R1        1.81402   0.00192  -0.00001   0.00381   0.00380   1.81782
    R2        1.81402   0.00192  -0.00001   0.00381   0.00380   1.81782
    A1        1.84190  -0.00103  -0.00670  -0.00150  -0.00820   1.83371
         Item               Value     Threshold  Converged?
 Maximum Force            0.001924     0.000450     NO 
 RMS     Force            0.001680     0.000300     NO 
 Maximum Displacement     0.004476     0.001800     NO 
 RMS     Displacement     0.004063     0.001200     NO 
 Predicted change in Energy=-1.172519D-05
 GradGradGradGradGradGradGradGradGradGradGradGradGradGradGradGradGradGrad

                          Input orientation:                          
 ---------------------------------------------------------------------
 Center     Atomic      Atomic             Coordinates (Angstroms)
 Number     Number       Type             X           Y           Z
 ---------------------------------------------------------------------
      1          8           0       -0.941237   -0.204180    0.000000
      2          1           0        0.019994   -0.166948   -0.000000
      3          1           0       -1.227006    0.714344    0.000000
 ---------------------------------------------------------------------
                    Distance matrix (angstroms):
                    1          2          3
     1  O    0.000000
     2  H    0.961951   0.000000
     3  H    0.961951   1.526985   0.000000
 Stoichiometry    H2O
 Framework group  C2V[C2(O),SGV(H2)]
 Deg. of freedom     2
 Full point group                 C2V     NOp   4
 Largest Abelian subgroup         C2V     NOp   4
 Largest concise Abelian subgroup C2      NOp   2
                         Standard orientation:                         
 ---------------------------------------------------------------------
 Center     Atomic      Atomic             Coordinates (Angstroms)
 Number     Number       Type             X           Y           Z
 ---------------------------------------------------------------------
      1          8           0        0.000000    0.000000    0.117035
      2          1           0        0.000000    0.763492   -0.468140
      3          1           0       -0.000000   -0.763492   -0.468140
 ---------------------------------------------------------------------
 Rotational constants (GHZ):         824.4722712         430.1228493         282.6604031
 Standard basis: 6-311++G(d,p) (5D, 7F)
 There are    18 symmetry adapted cartesian basis functions of A1  symmetry.
 There are     2 symmetry adapted cartesian basis functions of A2  symmetry.
 There are     6 symmetry adapted cartesian basis functions of B1  symmetry.
 There are    11 symmetry adapted cartesian basis functions of B2  symmetry.
 There are    17 symmetry adapted basis functions of A1  symmetry.
 There are     2 symmetry adapted basis functions of A2  symmetry.
 There are     6 symmetry adapted basis functions of B1  symmetry.
 There are    11 symmetry adapted basis functions of B2  symmetry.
    36 basis functions,    54 primitive gaussians,    37 cartesian basis functions
     5 alpha electrons        5 beta electrons
       nuclear repulsion energy         9.1482792745 Hartrees.
 NAtoms=    3 NActive=    3 NUniq=    2 SFac= 2.25D+00 NAtFMM=   60 NAOKFM=F Big=F
 Integral buffers will be    131072 words long.
 Raffenetti 2 integral format.
 Two-electron integral symmetry is turned on.
 One-electron integrals computed using PRISM.
 NBasis=    36 RedAO= T EigKep=  3.55D-03  NBF=    17     2     6    11
 NBsUse=    36 1.00D-06 EigRej= -1.00D+00 NBFU=    17     2     6    11
 Initial guess from the checkpoint file:  "water.chk"
 B after Tr=     0.000000    0.000000   -0.000000
         Rot=    1.000000   -0.000000    0.000000    0.000000 Ang=   0.00 deg.
 Initial guess orbital symmetries:
       Occupied  (A1) (A1) (B2) (A1) (B1)
       Virtual   (A1) (B2) (A1) (B1) (A1) (B2) (B2) (A1) (B2) (A1)
                 (A1) (B1) (B2) (A1) (A2) (A1) (B1) (B2) (B2) (A1)
                 (A1) (B2) (B1) (A2) (A1) (A1) (B2) (B1) (A1) (B2)
                 (A1)
 Keep R1 ints in memory in symmetry-blocked form, NReq=10594171.
 Requested convergence on RMS density matrix=1.00D-08 within 128 cycles.
 Requested convergence on MAX density matrix=1.00D-06.
 Requested convergence on             energy=1.00D-06.
 No special actions if energy rises.
 SCF Done:  E(RB3LYP) =  -76.4585319615     A.U. after    6 cycles
            NFock=  6  Conv=0.95D-08     -V/T= 2.0031
 Calling FoFJK, ICntrl=      2127 FMM=F ISym2X=1 I1Cent= 0 IOpClX= 0 NMat=1 NMatS=1 NMatT=0.
 ***** Axes restored to original set *****
 -------------------------------------------------------------------
 Center     Atomic                   Forces (Hartrees/Bohr)
 Number     Number              X              Y              Z
 -------------------------------------------------------------------
      1        8          -0.000085295   -0.000120690    0.000000000
      2        1           0.000121374    0.000004706   -0.000000000
      3        1          -0.000036079    0.000115983   -0.000000000
 -------------------------------------------------------------------
 Cartesian Forces:  Max     0.000121374 RMS     0.000075534

 GradGradGradGradGradGradGradGradGradGradGradGradGradGradGradGradGradGrad
 Berny optimization.
 Using GEDIIS/GDIIS optimizer.
 FormGI is forming the generalized inverse of G from B-inverse, IUseBI=4.
 Internal  Forces:  Max     0.000121465 RMS     0.000099176
 Search for a local minimum.
 Step number   3 out of a maximum of   20
 All quantities printed in internal units (Hartrees-Bohrs-Radians)
 Mixed Optimization -- En-DIIS/RFO-DIIS
 Update second derivatives using D2CorX and points    1    2    3
 DE= -1.20D-05 DEPred=-1.17D-05 R= 1.02D+00
 TightC=F SS=  1.41D+00  RLast= 9.80D-03 DXNew= 5.0454D-01 2.9407D-02
 Trust test= 1.02D+00 RLast= 9.80D-03 DXMaxT set to 3.00D-01
 The second derivative matrix:
                          R1        R2        A1
           R1           0.54509
           R2          -0.00965   0.54509
           A1           0.02841   0.02841   0.15204
 ITU=  1  1  0
 Use linear search instead of GDIIS.
     Eigenvalues ---    0.14787   0.53960   0.55473
 RFO step:  Lambda=-1.76115715D-08 EMin= 1.47869548D-01
 Quartic linear search produced a step of  0.04184.
 Iteration  1 RMS(Cart)=  0.00014656 RMS(Int)=  0.00000001
 Iteration  2 RMS(Cart)=  0.00000001 RMS(Int)=  0.00000000
 ClnCor:  largest displacement from symmetrization is 3.36D-15 for atom     3.
 Variable       Old X    -DE/DX   Delta X   Delta X   Delta X     New X
                                 (Linear)    (Quad)   (Total)
    R1        1.81782   0.00012   0.00016   0.00007   0.00023   1.81806
    R2        1.81782   0.00012   0.00016   0.00007   0.00023   1.81806
    A1        1.83371  -0.00000  -0.00034   0.00025  -0.00009   1.83362
         Item               Value     Threshold  Converged?
 Maximum Force            0.000121     0.000450     YES
 RMS     Force            0.000099     0.000300     YES
 Maximum Displacement     0.000150     0.001800     YES
 RMS     Displacement     0.000147     0.001200     YES
 Predicted change in Energy=-2.811275D-08
 Optimization completed.
    -- Stationary point found.
                           ----------------------------
                           !   Optimized Parameters   !
                           ! (Angstroms and Degrees)  !
 --------------------------                            --------------------------
 ! Name  Definition              Value          Derivative Info.                !
 --------------------------------------------------------------------------------
 ! R1    R(1,2)                  0.962          -DE/DX =    0.0001              !
 ! R2    R(1,3)                  0.962          -DE/DX =    0.0001              !
 ! A1    A(2,1,3)              105.0636         -DE/DX =    0.0                 !
 --------------------------------------------------------------------------------
 GradGradGradGradGradGradGradGradGradGradGradGradGradGradGradGradGradGrad

                          Input orientation:                          
 ---------------------------------------------------------------------
 Center     Atomic      Atomic             Coordinates (Angstroms)
 Number     Number       Type             X           Y           Z
 ---------------------------------------------------------------------
      1          8           0       -0.941237   -0.204180    0.000000
      2          1           0        0.019994   -0.166948   -0.000000
      3          1           0       -1.227006    0.714344    0.000000
 ---------------------------------------------------------------------
                    Distance matrix (angstroms):
                    1          2          3
     1  O    0.000000
     2  H    0.961951   0.000000
     3  H    0.961951   1.526985   0.000000
 Stoichiometry    H2O
 Framework group  C2V[C2(O),SGV(H2)]
 Deg. of freedom     2
 Full point group                 C2V     NOp   4
 Largest Abelian subgroup         C2V     NOp   4
 Largest concise Abelian subgroup C2      NOp   2
                         Standard orientation:                         
 ---------------------------------------------------------------------
 Center     Atomic      Atomic             Coordinates (Angstroms)
 Number     Number       Type             X           Y           Z
 ---------------------------------------------------------------------
      1          8           0        0.000000    0.000000    0.117035
      2          1           0       -0.000000    0.763492   -0.468140
      3          1           0       -0.000000   -0.763492   -0.468140
 ---------------------------------------------------------------------
 Rotational constants (GHZ):         824.4722712         430.1228493         282.6604031

 **********************************************************************

            Population analysis using the SCF Density.

 **********************************************************************

 Orbital symmetries:
       Occupied  (A1) (A1) (B2) (A1) (B1)
       Virtual   (A1) (B2) (A1) (B1) (A1) (B2) (B2) (A1) (B2) (A1)
                 (A1) (B1) (B2) (A1) (A2) (A1) (B1) (B2) (B2) (A1)
                 (A1) (B2) (B1) (A2) (A1) (A1) (B2) (B1) (A1) (B2)
                 (A1)
 The electronic state is 1-A1.
 Alpha  occ. eigenvalues --  -19.13332  -1.02328  -0.54326  -0.39678  -0.32296
 Alpha virt. eigenvalues --   -0.02329   0.02923   0.13821   0.15123   0.15360
 Alpha virt. eigenvalues --    0.15366   0.22031   0.22521   0.49837   0.54462
 Alpha virt. eigenvalues --    0.95441   0.99294   1.00326   1.23068   1.25029
 Alpha virt. eigenvalues --    1.35212   1.45961   1.65828   1.98084   2.11760
 Alpha virt. eigenvalues --    2.39583   2.56528   3.08728   3.13621   3.30366
 Alpha virt. eigenvalues --    3.66855   3.88290   4.92141   5.29888   5.61318
 Alpha virt. eigenvalues --   49.85385
          Condensed to atoms (all electrons):
               1          2          3
     1  O    7.872578   0.314925   0.314925
     2  H    0.314925   0.458785  -0.024923
     3  H    0.314925  -0.024923   0.458785
 Mulliken charges:
               1
     1  O   -0.502427
     2  H    0.251214
     3  H    0.251214
 Sum of Mulliken charges =  -0.00000
 Mulliken charges with hydrogens summed into heavy atoms:
               1
     1  O   -0.000000
 Electronic spatial extent (au):  <R**2>=             20.0914
 Charge=             -0.0000 electrons
 Dipole moment (field-independent basis, Debye):
    X=             -0.0000    Y=             -0.0000    Z=             -2.1590  Tot=              2.1590
 Quadrupole moment (field-independent basis, Debye-Ang):
   XX=             -7.8055   YY=             -4.4428   ZZ=             -6.5439
   XY=              0.0000   XZ=              0.0000   YZ=              0.0000
 Traceless Quadrupole moment (field-independent basis, Debye-Ang):
   XX=             -1.5414   YY=              1.8213   ZZ=             -0.2799
   XY=              0.0000   XZ=              0.0000   YZ=              0.0000
 Octapole moment (field-independent basis, Debye-Ang**2):
  XXX=              0.0000  YYY=             -0.0000  ZZZ=             -1.5055  XYY=             -0.0000
  XXY=              0.0000  XXZ=             -0.4493  XZZ=              0.0000  YZZ=             -0.0000
  YYZ=             -1.3475  XYZ=             -0.0000
 Hexadecapole moment (field-independent basis, Debye-Ang**3):
 XXXX=             -7.6904 YYYY=             -6.6185 ZZZZ=             -8.1389 XXXY=             -0.0000
 XXXZ=             -0.0000 YYYX=             -0.0000 YYYZ=              0.0000 ZZZX=             -0.0000
 ZZZY=             -0.0000 XXYY=             -2.6810 XXZZ=             -2.6926 YYZZ=             -2.1443
 XXYZ=             -0.0000 YYXZ=              0.0000 ZZXY=             -0.0000
 N-N= 9.148279274503D+00 E-N=-1.991779943622D+02  KE= 7.622552949693D+01
 Symmetry A1   KE= 6.801989980394D+01
 Symmetry A2   KE= 1.115146576847D-34
 Symmetry B1   KE= 4.535870618545D+00
 Symmetry B2   KE= 3.669759074437D+00
 1\1\GINC-RIPPER-24-06\FOpt\RB3LYP\6-311++G(d,p)\H2O1\EUGENE\25-Feb-202
 5\0\\# opt freq b3lyp/6-311++g(d,p) geom=connectivity\\Title Card Requ
 ired\\0,1\O,-0.9412370621,-0.2041801021,0.\H,0.0199935287,-0.166947965
 6,0.\H,-1.2270058721,0.7143440773,0.\\Version=ES64L-G16RevB.01\State=1
 -A1\HF=-76.458532\RMSD=9.484e-09\RMSF=7.553e-05\Dipole=0.4902398,0.693
 6733,0.\Quadrupole=0.8337206,0.3122675,-1.145988,-0.7362691,0.,0.\PG=C
 02V [C2(O1),SGV(H2)]\\@


 WE HAVE SEEN THAT MAN ON THE AVERAGE DOES NOT LIVE ABOVE
 TWO-AND-TWENTY YEARS.  DURING THESE TWO AND TWENTY
 YEARS HE IS LIABLE TO TWO AND TWENTY THOUSAND EVILS,
 MANY OF WHICH ARE INCURABLE.  YET EVEN IN THIS DREADFUL STATE
 MEN STILL STRUT AND POSE ON THE STAGE OF LIFE.
 THEY MAKE LOVE AT THE RISK OF DESTRUCTION,
 INTRIGUE, CARRY ON WAR, AND FORM PROJECTS, JUST AS IF THEY
 WERE TO LIVE IN LUXURY AND HAPPINESS FOR A THOUSAND
 AGES.

                                              -- VOLTAIRE
 Job cpu time:       0 days  0 hours  0 minutes 29.3 seconds.
 Elapsed time:       0 days  0 hours  0 minutes  2.9 seconds.
 File lengths (MBytes):  RWF=      6 Int=      0 D2E=      0 Chk=      2 Scr=      1
 Normal termination of Gaussian 16 at Tue Feb 25 16:09:34 2025.
 Link1:  Proceeding to internal job step number  2.
 ----------------------------------------------------------------------
 #N Geom=AllCheck Guess=TCheck SCRF=Check GenChk RB3LYP/6-311++G(d,p) F
 req
 ----------------------------------------------------------------------
 1/10=4,29=7,30=1,38=1,40=1/1,3;
 2/12=2,40=1/2;
 3/5=4,6=6,7=1111,11=2,14=-4,25=1,30=1,70=2,71=2,74=-5,116=1,140=1/1,2,3;
 4/5=101/1;
 5/5=2,38=6,98=1/2;
 8/6=4,10=90,11=11/1;
 11/6=1,8=1,9=11,15=111,16=1/1,2,10;
 10/6=1/2;
 6/7=2,8=2,9=2,10=2,28=1/1;
 7/8=1,10=1,25=1/1,2,3,16;
 1/10=4,30=1/3;
 99//99;
 Structure from the checkpoint file:  "water.chk"
 -------------------
 Title Card Required
 -------------------
 Charge =  0 Multiplicity = 1
 Redundant internal coordinates found in file.  (old form).
 O,0,-0.9412370621,-0.2041801021,0.
 H,0,0.0199935287,-0.1669479656,0.
 H,0,-1.2270058721,0.7143440773,0.
 Recover connectivity data from disk.

 GradGradGradGradGradGradGradGradGradGradGradGradGradGradGradGradGradGrad
 Berny optimization.
 Initialization pass.
                           ----------------------------
                           !    Initial Parameters    !
                           ! (Angstroms and Degrees)  !
 --------------------------                            --------------------------
 ! Name  Definition              Value          Derivative Info.                !
 --------------------------------------------------------------------------------
 ! R1    R(1,2)                  0.962          calculate D2E/DX2 analytically  !
 ! R2    R(1,3)                  0.962          calculate D2E/DX2 analytically  !
 ! A1    A(2,1,3)              105.0636         calculate D2E/DX2 analytically  !
 --------------------------------------------------------------------------------
 Trust Radius=3.00D-01 FncErr=1.00D-07 GrdErr=1.00D-07 EigMax=2.50D+02 EigMin=1.00D-04
 Number of steps in this run=      2 maximum allowed number of steps=      2.
 GradGradGradGradGradGradGradGradGradGradGradGradGradGradGradGradGradGrad

                          Input orientation:                          
 ---------------------------------------------------------------------
 Center     Atomic      Atomic             Coordinates (Angstroms)
 Number     Number       Type             X           Y           Z
 ---------------------------------------------------------------------
      1          8           0       -0.941237   -0.204180    0.000000
      2          1           0        0.019994   -0.166948   -0.000000
      3          1           0       -1.227006    0.714344    0.000000
 ---------------------------------------------------------------------
                    Distance matrix (angstroms):
                    1          2          3
     1  O    0.000000
     2  H    0.961951   0.000000
     3  H    0.961951   1.526985   0.000000
 Stoichiometry    H2O
 Framework group  C2V[C2(O),SGV(H2)]
 Deg. of freedom     2
 Full point group                 C2V     NOp   4
 Largest Abelian subgroup         C2V     NOp   4
 Largest concise Abelian subgroup C2      NOp   2
                         Standard orientation:                         
 ---------------------------------------------------------------------
 Center     Atomic      Atomic             Coordinates (Angstroms)
 Number     Number       Type             X           Y           Z
 ---------------------------------------------------------------------
      1          8           0        0.000000   -0.000000    0.117035
      2          1           0        0.000000    0.763492   -0.468140
      3          1           0       -0.000000   -0.763492   -0.468140
 ---------------------------------------------------------------------
 Rotational constants (GHZ):         824.4722712         430.1228493         282.6604031
 Standard basis: 6-311++G(d,p) (5D, 7F)
 There are    18 symmetry adapted cartesian basis functions of A1  symmetry.
 There are     2 symmetry adapted cartesian basis functions of A2  symmetry.
 There are     6 symmetry adapted cartesian basis functions of B1  symmetry.
 There are    11 symmetry adapted cartesian basis functions of B2  symmetry.
 There are    17 symmetry adapted basis functions of A1  symmetry.
 There are     2 symmetry adapted basis functions of A2  symmetry.
 There are     6 symmetry adapted basis functions of B1  symmetry.
 There are    11 symmetry adapted basis functions of B2  symmetry.
    36 basis functions,    54 primitive gaussians,    37 cartesian basis functions
     5 alpha electrons        5 beta electrons
       nuclear repulsion energy         9.1482792745 Hartrees.
 NAtoms=    3 NActive=    3 NUniq=    2 SFac= 2.25D+00 NAtFMM=   60 NAOKFM=F Big=F
 Integral buffers will be    131072 words long.
 Raffenetti 2 integral format.
 Two-electron integral symmetry is turned on.
 One-electron integrals computed using PRISM.
 NBasis=    36 RedAO= T EigKep=  3.55D-03  NBF=    17     2     6    11
 NBsUse=    36 1.00D-06 EigRej= -1.00D+00 NBFU=    17     2     6    11
 Initial guess from the checkpoint file:  "water.chk"
 B after Tr=     0.000000   -0.000000    0.000000
         Rot=    1.000000    0.000000   -0.000000   -0.000000 Ang=   0.00 deg.
 Initial guess orbital symmetries:
       Occupied  (A1) (A1) (B2) (A1) (B1)
       Virtual   (A1) (B2) (A1) (B1) (A1) (B2) (B2) (A1) (B2) (A1)
                 (A1) (B1) (B2) (A1) (A2) (A1) (B1) (B2) (B2) (A1)
                 (A1) (B2) (B1) (A2) (A1) (A1) (B2) (B1) (A1) (B2)
                 (A1)
 Keep R1 ints in memory in symmetry-blocked form, NReq=10594171.
 Requested convergence on RMS density matrix=1.00D-08 within 128 cycles.
 Requested convergence on MAX density matrix=1.00D-06.
 Requested convergence on             energy=1.00D-06.
 No special actions if energy rises.
 SCF Done:  E(RB3LYP) =  -76.4585319615     A.U. after    1 cycles
            NFock=  1  Conv=0.85D-09     -V/T= 2.0031
 DoSCS=F DFT=T ScalE2(SS,OS)=  1.000000  1.000000
 Range of M.O.s used for correlation:     1    36
 NBasis=    36 NAE=     5 NBE=     5 NFC=     0 NFV=     0
 NROrb=     36 NOA=     5 NOB=     5 NVA=    31 NVB=    31
 Symmetrizing basis deriv contribution to polar:
 IMax=3 JMax=2 DiffMx= 0.00D+00
 G2DrvN: will do     4 centers at a time, making    1 passes.
 Calling FoFCou, ICntrl=  3107 FMM=F I1Cent=   0 AccDes= 0.00D+00.
 End of G2Drv F.D. properties file   721 does not exist.
 End of G2Drv F.D. properties file   722 does not exist.
 End of G2Drv F.D. properties file   788 does not exist.
          IDoAtm=111
          Differentiating once with respect to electric field.
                with respect to dipole field.
          Differentiating once with respect to nuclear coordinates.
 Keep R1 ints in memory in symmetry-blocked form, NReq=10555004.
          There are     9 degrees of freedom in the 1st order CPHF.  IDoFFX=4 NUNeed=     9.
      9 vectors produced by pass  0 Test12= 1.72D-15 1.11D-08 XBig12= 3.82D+00 1.30D+00.
 AX will form     9 AO Fock derivatives at one time.
      9 vectors produced by pass  1 Test12= 1.72D-15 1.11D-08 XBig12= 5.90D-01 3.39D-01.
      9 vectors produced by pass  2 Test12= 1.72D-15 1.11D-08 XBig12= 6.09D-03 2.84D-02.
      9 vectors produced by pass  3 Test12= 1.72D-15 1.11D-08 XBig12= 1.45D-05 1.27D-03.
      9 vectors produced by pass  4 Test12= 1.72D-15 1.11D-08 XBig12= 6.52D-08 9.14D-05.
      4 vectors produced by pass  5 Test12= 1.72D-15 1.11D-08 XBig12= 9.15D-11 3.19D-06.
      1 vectors produced by pass  6 Test12= 1.72D-15 1.11D-08 XBig12= 4.57D-14 8.37D-08.
 InvSVY:  IOpt=1 It=  1 EMax= 2.22D-16
 Solved reduced A of dimension    50 with     9 vectors.
 Isotropic polarizability for W=    0.000000        7.38 Bohr**3.
 End of Minotr F.D. properties file   721 does not exist.
 End of Minotr F.D. properties file   722 does not exist.
 End of Minotr F.D. properties file   788 does not exist.

 **********************************************************************

            Population analysis using the SCF Density.

 **********************************************************************

 Orbital symmetries:
       Occupied  (A1) (A1) (B2) (A1) (B1)
       Virtual   (A1) (B2) (A1) (B1) (A1) (B2) (B2) (A1) (B2) (A1)
                 (A1) (B1) (B2) (A1) (A2) (A1) (B1) (B2) (B2) (A1)
                 (A1) (B2) (B1) (A2) (A1) (A1) (B2) (B1) (A1) (B2)
                 (A1)
 The electronic state is 1-A1.
 Alpha  occ. eigenvalues --  -19.13332  -1.02328  -0.54326  -0.39678  -0.32296
 Alpha virt. eigenvalues --   -0.02329   0.02923   0.13821   0.15123   0.15360
 Alpha virt. eigenvalues --    0.15366   0.22031   0.22521   0.49837   0.54462
 Alpha virt. eigenvalues --    0.95441   0.99294   1.00326   1.23068   1.25029
 Alpha virt. eigenvalues --    1.35212   1.45961   1.65828   1.98084   2.11760
 Alpha virt. eigenvalues --    2.39583   2.56528   3.08728   3.13621   3.30366
 Alpha virt. eigenvalues --    3.66855   3.88290   4.92141   5.29888   5.61318
 Alpha virt. eigenvalues --   49.85385
          Condensed to atoms (all electrons):
               1          2          3
     1  O    7.872578   0.314925   0.314925
     2  H    0.314925   0.458785  -0.024923
     3  H    0.314925  -0.024923   0.458785
 Mulliken charges:
               1
     1  O   -0.502427
     2  H    0.251214
     3  H    0.251214
 Sum of Mulliken charges =   0.00000
 Mulliken charges with hydrogens summed into heavy atoms:
               1
     1  O    0.000000
 APT charges:
               1
     1  O   -0.551307
     2  H    0.275654
     3  H    0.275654
 Sum of APT charges =  -0.00000
 APT charges with hydrogens summed into heavy atoms:
               1
     1  O   -0.000000
 Electronic spatial extent (au):  <R**2>=             20.0914
 Charge=              0.0000 electrons
 Dipole moment (field-independent basis, Debye):
    X=             -0.0000    Y=              0.0000    Z=             -2.1590  Tot=              2.1590
 Quadrupole moment (field-independent basis, Debye-Ang):
   XX=             -7.8055   YY=             -4.4428   ZZ=             -6.5439
   XY=              0.0000   XZ=              0.0000   YZ=              0.0000
 Traceless Quadrupole moment (field-independent basis, Debye-Ang):
   XX=             -1.5414   YY=              1.8213   ZZ=             -0.2799
   XY=              0.0000   XZ=              0.0000   YZ=              0.0000
 Octapole moment (field-independent basis, Debye-Ang**2):
  XXX=              0.0000  YYY=              0.0000  ZZZ=             -1.5055  XYY=             -0.0000
  XXY=              0.0000  XXZ=             -0.4493  XZZ=              0.0000  YZZ=              0.0000
  YYZ=             -1.3475  XYZ=             -0.0000
 Hexadecapole moment (field-independent basis, Debye-Ang**3):
 XXXX=             -7.6904 YYYY=             -6.6185 ZZZZ=             -8.1389 XXXY=             -0.0000
 XXXZ=             -0.0000 YYYX=             -0.0000 YYYZ=              0.0000 ZZZX=             -0.0000
 ZZZY=              0.0000 XXYY=             -2.6810 XXZZ=             -2.6926 YYZZ=             -2.1443
 XXYZ=              0.0000 YYXZ=              0.0000 ZZXY=             -0.0000
 N-N= 9.148279274503D+00 E-N=-1.991779945361D+02  KE= 7.622552957872D+01
 Symmetry A1   KE= 6.801989977986D+01
 Symmetry A2   KE= 7.531499154237D-35
 Symmetry B1   KE= 4.535870671435D+00
 Symmetry B2   KE= 3.669759127420D+00
  Exact polarizability:   6.932   0.000   8.320   0.000   0.000   6.889
 Approx polarizability:   7.024   0.000  10.131   0.000  -0.000   7.993
 Calling FoFJK, ICntrl=    100127 FMM=F ISym2X=1 I1Cent= 0 IOpClX= 0 NMat=1 NMatS=1 NMatT=0.
 Full mass-weighted force constant matrix:
 Low frequencies ---  -42.0528  -40.3450  -39.6121    0.0006    0.0013    0.0015
 Low frequencies --- 1602.4365 3818.8124 3923.9167
 Diagonal vibrational polarizability:
        0.0000000       0.0994586       0.7163237
 Harmonic frequencies (cm**-1), IR intensities (KM/Mole), Raman scattering
 activities (A**4/AMU), depolarization ratios for plane and unpolarized
 incident light, reduced masses (AMU), force constants (mDyne/A),
 and normal coordinates:
                      1                      2                      3
                     A1                     A1                     B2
 Frequencies --   1602.4365              3818.8124              3923.9167
 Red. masses --      1.0829                 1.0449                 1.0824
 Frc consts  --      1.6384                 8.9782                 9.8194
 IR Inten    --     66.7263                 9.2211                56.9048
  Atom  AN      X      Y      Z        X      Y      Z        X      Y      Z
     1   8    -0.00  -0.00  -0.07     0.00  -0.00   0.05    -0.00  -0.07  -0.00
     2   1     0.00   0.43   0.56     0.00   0.59  -0.39    -0.00   0.56  -0.43
     3   1     0.00  -0.43   0.56    -0.00  -0.59  -0.39     0.00   0.56   0.43

 -------------------
 - Thermochemistry -
 -------------------
 Temperature   298.150 Kelvin.  Pressure   1.00000 Atm.
 Atom     1 has atomic number  8 and mass  15.99491
 Atom     2 has atomic number  1 and mass   1.00783
 Atom     3 has atomic number  1 and mass   1.00783
 Molecular mass:    18.01056 amu.
 Principal axes and moments of inertia in atomic units:
                           1         2         3
     Eigenvalues --     2.18897   4.19587   6.38484
           X            0.00000   0.00000   1.00000
           Y            1.00000   0.00000   0.00000
           Z           -0.00000   1.00000  -0.00000
 This molecule is an asymmetric top.
 Rotational symmetry number  2.
 Rotational temperatures (Kelvin)     39.56843    20.64264    13.56556
 Rotational constants (GHZ):         824.47227   430.12285   282.66040
 Zero-point vibrational energy      55896.5 (Joules/Mol)
                                   13.35958 (Kcal/Mol)
 Vibrational temperatures:   2305.55  5494.42  5645.64
          (Kelvin)
 
 Zero-point correction=                           0.021290 (Hartree/Particle)
 Thermal correction to Energy=                    0.024126
 Thermal correction to Enthalpy=                  0.025070
 Thermal correction to Gibbs Free Energy=         0.003648
 Sum of electronic and zero-point Energies=            -76.437242
 Sum of electronic and thermal Energies=               -76.434406
 Sum of electronic and thermal Enthalpies=             -76.433462
 Sum of electronic and thermal Free Energies=          -76.454884
 
                     E (Thermal)             CV                S
                      KCal/Mol        Cal/Mol-Kelvin    Cal/Mol-Kelvin
 Total                   15.139              6.014             45.087
 Electronic               0.000              0.000              0.000
 Translational            0.889              2.981             34.608
 Rotational               0.889              2.981             10.471
 Vibrational             13.362              0.052              0.008
                       Q            Log10(Q)             Ln(Q)
 Total Bot       0.209997D-01         -1.677788         -3.863249
 Total V=0       0.130274D+09          8.114856         18.685148
 Vib (Bot)       0.161267D-09         -9.792454        -22.547958
 Vib (V=0)       0.100044D+01          0.000190          0.000438
 Electronic      0.100000D+01          0.000000          0.000000
 Translational   0.300431D+07          6.477745         14.915559
 Rotational      0.433432D+02          1.636921          3.769150
 ***** Axes restored to original set *****
 -------------------------------------------------------------------
 Center     Atomic                   Forces (Hartrees/Bohr)
 Number     Number              X              Y              Z
 -------------------------------------------------------------------
      1        8          -0.000085294   -0.000120688    0.000000000
      2        1           0.000121372    0.000004707    0.000000000
      3        1          -0.000036078    0.000115982   -0.000000000
 -------------------------------------------------------------------
 Cartesian Forces:  Max     0.000121372 RMS     0.000075533
 FormGI is forming the generalized inverse of G from B-inverse, IUseBI=4.

 GradGradGradGradGradGradGradGradGradGradGradGradGradGradGradGradGradGrad
 Berny optimization.
 Internal  Forces:  Max     0.000121464 RMS     0.000099175
 Search for a local minimum.
 Step number   1 out of a maximum of    2
 All quantities printed in internal units (Hartrees-Bohrs-Radians)
 Second derivative matrix not updated -- analytic derivatives used.
 The second derivative matrix:
                          R1        R2        A1
           R1           0.53861
           R2          -0.00545   0.53861
           A1           0.02910   0.02910   0.15320
 ITU=  0
     Eigenvalues ---    0.14880   0.53757   0.54405
 Angle between quadratic step and forces=  15.04 degrees.
 Linear search not attempted -- first point.
 Iteration  1 RMS(Cart)=  0.00014715 RMS(Int)=  0.00000001
 Iteration  2 RMS(Cart)=  0.00000001 RMS(Int)=  0.00000000
 ClnCor:  largest displacement from symmetrization is 5.25D-16 for atom     2.
 Variable       Old X    -DE/DX   Delta X   Delta X   Delta X     New X
                                 (Linear)    (Quad)   (Total)
    R1        1.81782   0.00012   0.00000   0.00023   0.00023   1.81806
    R2        1.81782   0.00012   0.00000   0.00023   0.00023   1.81806
    A1        1.83371  -0.00000   0.00000  -0.00009  -0.00009   1.83362
         Item               Value     Threshold  Converged?
 Maximum Force            0.000121     0.000450     YES
 RMS     Force            0.000099     0.000300     YES
 Maximum Displacement     0.000150     0.001800     YES
 RMS     Displacement     0.000147     0.001200     YES
 Predicted change in Energy=-2.825850D-08
 Optimization completed.
    -- Stationary point found.
                           ----------------------------
                           !   Optimized Parameters   !
                           ! (Angstroms and Degrees)  !
 --------------------------                            --------------------------
 ! Name  Definition              Value          Derivative Info.                !
 --------------------------------------------------------------------------------
 ! R1    R(1,2)                  0.962          -DE/DX =    0.0001              !
 ! R2    R(1,3)                  0.962          -DE/DX =    0.0001              !
 ! A1    A(2,1,3)              105.0636         -DE/DX =    0.0                 !
 --------------------------------------------------------------------------------
 GradGradGradGradGradGradGradGradGradGradGradGradGradGradGradGradGradGrad


 ----------------------------------------------------------------------

 Electric dipole moment (input orientation):
 (Debye = 10**-18 statcoulomb cm , SI units = C m)
                  (au)            (Debye)         (10**-30 SI)
   Tot        0.849422D+00      0.215902D+01      0.720170D+01
   x          0.490240D+00      0.124607D+01      0.415643D+01
   y          0.693673D+00      0.176314D+01      0.588121D+01
   z          0.000000D+00      0.000000D+00      0.000000D+00

 Dipole polarizability, Alpha (input orientation).
 (esu units = cm**3 , SI units = C**2 m**2 J**-1)
 Alpha(0;0):
               (au)            (10**-24 esu)      (10**-40 SI)
   iso        0.738001D+01      0.109360D+01      0.121680D+01
   aniso      0.140994D+01      0.208931D+00      0.232467D+00
   xx         0.784301D+01      0.116221D+01      0.129314D+01
   yx        -0.674419D+00     -0.999385D-01     -0.111197D+00
   yy         0.736536D+01      0.109143D+01      0.121438D+01
   zx         0.000000D+00      0.000000D+00      0.000000D+00
   zy         0.000000D+00      0.000000D+00      0.000000D+00
   zz         0.693166D+01      0.102717D+01      0.114288D+01

 ----------------------------------------------------------------------

 Dipole orientation:
     8         -1.00435147          0.70980544         -1.34165339
     1          0.17389221         -0.12289486         -0.23583305
     1         -2.18259514          1.54250574         -0.23583305

 Electric dipole moment (dipole orientation):
 (Debye = 10**-18 statcoulomb cm , SI units = C m)
                  (au)            (Debye)         (10**-30 SI)
   Tot        0.849422D+00      0.215902D+01      0.720170D+01
   x          0.000000D+00      0.000000D+00      0.000000D+00
   y          0.000000D+00      0.000000D+00      0.000000D+00
   z          0.849422D+00      0.215902D+01      0.720170D+01

 Dipole polarizability, Alpha (dipole orientation).
 (esu units = cm**3 , SI units = C**2 m**2 J**-1)
 Alpha(0;0):
               (au)            (10**-24 esu)      (10**-40 SI)
   iso        0.738001D+01      0.109360D+01      0.121680D+01
   aniso      0.140994D+01      0.208931D+00      0.232467D+00
   xx         0.785731D+01      0.116433D+01      0.129549D+01
   yx        -0.654184D+00     -0.969401D-01     -0.107860D+00
   yy         0.739399D+01      0.109568D+01      0.121910D+01
   zx         0.000000D+00      0.000000D+00      0.000000D+00
   zy         0.000000D+00      0.000000D+00      0.000000D+00
   zz         0.688873D+01      0.102080D+01      0.113580D+01

 ----------------------------------------------------------------------
 1\1\GINC-RIPPER-24-06\Freq\RB3LYP\6-311++G(d,p)\H2O1\EUGENE\25-Feb-202
 5\0\\#N Geom=AllCheck Guess=TCheck SCRF=Check GenChk RB3LYP/6-311++G(d
 ,p) Freq\\Title Card Required\\0,1\O,-0.9412370621,-0.2041801021,0.\H,
 0.0199935287,-0.1669479656,0.\H,-1.2270058721,0.7143440773,0.\\Version
 =ES64L-G16RevB.01\State=1-A1\HF=-76.458532\RMSD=8.476e-10\RMSF=7.553e-
 05\ZeroPoint=0.0212899\Thermal=0.0241256\Dipole=0.4902399,0.6936733,0.
 \DipoleDeriv=-0.4704283,0.0777652,0.,0.0777652,-0.4153522,0.,0.,0.,-0.
 7681415,0.1669045,-0.042512,0.,-0.0836326,0.2759857,0.,0.,0.,0.3840707
 ,0.3035238,-0.0352531,0.,0.0058674,0.1393664,0.,0.,0.,0.3840707\Polar=
 7.8430066,-0.6744187,7.3653582,0.,0.,6.9316583\Quadrupole=0.8337206,0.
 3122674,-1.145988,-0.7362691,0.,0.\PG=C02V [C2(O1),SGV(H2)]\NImag=0\\0
 .60682568,-0.11118768,0.52807844,0.,0.,-0.00011980,-0.52355187,0.00681
 083,0.,0.53910598,-0.05153379,-0.04390020,0.,0.00307889,0.04579767,0.,
 0.,0.00005990,0.,0.,-0.00005987,-0.08327382,0.10437685,0.,-0.01555411,
 0.04845489,0.,0.09882793,0.16272147,-0.48417824,0.,-0.00988973,-0.0018
 9747,0.,-0.15283174,0.48607571,0.,0.,0.00005990,0.,0.,-0.00000003,0.,0
 .,-0.00005987\\0.00008529,0.00012069,0.,-0.00012137,-0.00000471,0.,0.0
 0003608,-0.00011598,0.\\\@


 TIME IS NATURE'S WAY OF MAKING SURE EVERYTHING
 DOESN'T HAPPEN AT ONCE.
                     - WOODY ALLEN
 Job cpu time:       0 days  0 hours  0 minutes 18.8 seconds.
 Elapsed time:       0 days  0 hours  0 minutes  1.8 seconds.
 File lengths (MBytes):  RWF=      6 Int=      0 D2E=      0 Chk=      2 Scr=      1
 Normal termination of Gaussian 16 at Tue Feb 25 16:09:37 2025.
