 Entering Gaussian System, Link 0=g16
 Input=input.com
 Output=input.log
 Initial command:
 /share/apps/g16.b01_avx2/g16/l1.exe "/scratch/Gau-1835422.inp" -scrdir="/scratch/"
 Entering Link 1 = /share/apps/g16.b01_avx2/g16/l1.exe PID=   1835424.
  
 Copyright (c) 1988-2017, Gaussian, Inc.  All Rights Reserved.
  
 This is part of the Gaussian(R) 16 program.  It is based on
 the Gaussian(R) 09 system (copyright 2009, Gaussian, Inc.),
 the Gaussian(R) 03 system (copyright 2003, Gaussian, Inc.),
 the Gaussian(R) 98 system (copyright 1998, Gaussian, Inc.),
 the Gaussian(R) 94 system (copyright 1995, Gaussian, Inc.),
 the Gaussian 92(TM) system (copyright 1992, Gaussian, Inc.),
 the Gaussian 90(TM) system (copyright 1990, Gaussian, Inc.),
 the Gaussian 88(TM) system (copyright 1988, Gaussian, Inc.),
 the Gaussian 86(TM) system (copyright 1986, Carnegie Mellon
 University), and the Gaussian 82(TM) system (copyright 1983,
 Carnegie Mellon University). Gaussian is a federally registered
 trademark of Gaussian, Inc.
  
 This software contains proprietary and confidential information,
 including trade secrets, belonging to Gaussian, Inc.
  
 This software is provided under written license and may be
 used, copied, transmitted, or stored only in accord with that
 written license.
  
 The following legend is applicable only to US Government
 contracts under FAR:
  
                    RESTRICTED RIGHTS LEGEND
  
 Use, reproduction and disclosure by the US Government is
 subject to restrictions as set forth in subparagraphs (a)
 and (c) of the Commercial Computer Software - Restricted
 Rights clause in FAR 52.227-19.
  
 Gaussian, Inc.
 340 Quinnipiac St., Bldg. 40, Wallingford CT 06492
  
  
 ---------------------------------------------------------------
 Warning -- This program may not be used in any manner that
 competes with the business of Gaussian, Inc. or will provide
 assistance to any competitor of Gaussian, Inc.  The licensee
 of this program is prohibited from giving any competitor of
 Gaussian, Inc. access to this program.  By using this program,
 the user acknowledges that Gaussian, Inc. is engaged in the
 business of creating and licensing software in the field of
 computational chemistry and represents and warrants to the
 licensee that it is not a competitor of Gaussian, Inc. and that
 it will not use this program in any manner prohibited above.
 ---------------------------------------------------------------
  

 Cite this work as:
 Gaussian 16, Revision B.01,
 M. J. Frisch, G. W. Trucks, H. B. Schlegel, G. E. Scuseria, 
 M. A. Robb, J. R. Cheeseman, G. Scalmani, V. Barone, 
 G. A. Petersson, H. Nakatsuji, X. Li, M. Caricato, A. V. Marenich, 
 J. Bloino, B. G. Janesko, R. Gomperts, B. Mennucci, H. P. Hratchian, 
 J. V. Ortiz, A. F. Izmaylov, J. L. Sonnenberg, D. Williams-Young, 
 F. Ding, F. Lipparini, F. Egidi, J. Goings, B. Peng, A. Petrone, 
 T. Henderson, D. Ranasinghe, V. G. Zakrzewski, J. Gao, N. Rega, 
 G. Zheng, W. Liang, M. Hada, M. Ehara, K. Toyota, R. Fukuda, 
 J. Hasegawa, M. Ishida, T. Nakajima, Y. Honda, O. Kitao, H. Nakai, 
 T. Vreven, K. Throssell, J. A. Montgomery, Jr., J. E. Peralta, 
 F. Ogliaro, M. J. Bearpark, J. J. Heyd, E. N. Brothers, K. N. Kudin, 
 V. N. Staroverov, T. A. Keith, R. Kobayashi, J. Normand, 
 K. Raghavachari, A. P. Rendell, J. C. Burant, S. S. Iyengar, 
 J. Tomasi, M. Cossi, J. M. Millam, M. Klene, C. Adamo, R. Cammi, 
 J. W. Ochterski, R. L. Martin, K. Morokuma, O. Farkas, 
 J. B. Foresman, and D. J. Fox, Gaussian, Inc., Wallingford CT, 2016.
 
 ******************************************
 Gaussian 16:  ES64L-G16RevB.01 20-Dec-2017
                28-Aug-2024 
 ******************************************
 %nproc=24
 Will use up to   24 processors via shared memory.
 %mem=64GB
 ----------------------------------------------------------------------
 #P PBE1PBE/def2TZVP opt=(calcfc, ts, noeigentest) freq EmpiricalDisper
 sion=GD3 Int=(grid=99590) scrf=(iefpcm, solvent=water)
 ----------------------------------------------------------------------
 1/5=1,10=4,11=1,18=20,26=6,38=1/1,3;
 2/9=110,12=2,17=6,18=5,40=1/2;
 3/5=44,7=101,11=2,25=1,30=1,70=2201,71=2,72=1,74=-13,75=99590,124=31,140=1/1,2,3;
 4//1;
 5/5=2,38=5,53=1/2;
 8/6=4,10=90,11=11/1;
 11/6=1,8=1,9=11,15=111,16=1/1,2,10;
 10/6=1,13=1/2;
 6/7=2,8=2,9=2,10=2,28=1/1;
 7/10=1,18=20,25=1/1,2,3,16;
 1/5=1,10=4,11=1,18=20,26=6/3(2);
 2/9=110/2;
 99//99;
 2/9=110/2;
 3/5=44,7=101,11=2,25=1,30=1,70=2205,71=1,72=1,74=-13,75=99590,124=31/1,2,3;
 4/5=5,16=3,69=1/1;
 5/5=2,38=5,53=1/2;
 7//1,2,3,16;
 1/5=1,11=1,18=20,26=6/3(-5);
 2/9=110/2;
 6/7=2,8=2,9=2,10=2,19=2,28=1/1;
 99/9=1/99;
 Leave Link    1 at Wed Aug 28 19:04:27 2024, MaxMem=  8589934592 cpu:               0.8 elap:               0.0
 (Enter /share/apps/g16.b01_avx2/g16/l101.exe)
 -----------------
 pfp-cf3_ester ts1
 -----------------
 Symbolic Z-matrix:
 Charge =  0 Multiplicity = 1
 H                    -2.32657   1.6415    0.16261 
 O                    -1.82377  -0.72564   1.24022 
 C                    -2.25774  -0.58416   0.10109 
 N                    -3.09036   0.98771   0.02173 
 H                    -3.43878   1.13929  -0.92016 
 C                    -4.12976   1.15763   1.03776 
 H                    -5.02708   0.61666   0.7535 
 H                    -3.75319   0.75212   1.97633 
 H                    -4.3764    2.21118   1.17101 
 C                    -3.25176  -1.51776  -0.5476 
 O                    -1.25866  -0.2855   -0.97109 
 C                     0.00867  -0.13136  -0.55521 
 C                     0.58166   1.13112  -0.45166 
 C                     0.81427  -1.22603  -0.25672 
 C                     1.90334   1.30492  -0.08103 
 C                     2.13532  -1.06893   0.12258 
 C                     2.68342   0.19976   0.21041 
 F                    -0.15878   2.20851  -0.71158 
 F                     0.31675  -2.45299  -0.35147 
 F                     2.42292   2.52395   0.00314 
 F                     2.88397  -2.13066   0.39819 
 F                     3.95125   0.35432   0.56926 
 F                    -2.7004   -2.75001  -0.5407 
 F                    -3.52705  -1.16853  -1.82226 
 F                    -4.39888  -1.56364   0.1627 
 
 Add virtual bond connecting atoms N4         and C3         Dist= 3.36D+00.
 ITRead=  0  0  0  0  0  0  0  0  0  0  0  0  0  0  0  0  0  0  0  0
 ITRead=  0  0  0  0  0
 MicOpt= -1 -1 -1 -1 -1 -1 -1 -1 -1 -1 -1 -1 -1 -1 -1 -1 -1 -1 -1 -1
 MicOpt= -1 -1 -1 -1 -1
 NAtoms=     25 NQM=       25 NQMF=       0 NMMI=      0 NMMIF=      0
                NMic=       0 NMicF=      0.
                    Isotopes and Nuclear Properties:
 (Nuclear quadrupole moments (NQMom) in fm**2, nuclear magnetic moments (NMagM)
  in nuclear magnetons)

  Atom         1           2           3           4           5           6           7           8           9          10
 IAtWgt=           1          16          12          14           1          12           1           1           1          12
 AtmWgt=   1.0078250  15.9949146  12.0000000  14.0030740   1.0078250  12.0000000   1.0078250   1.0078250   1.0078250  12.0000000
 NucSpn=           1           0           0           2           1           0           1           1           1           0
 AtZEff=  -0.0000000  -0.0000000  -0.0000000  -0.0000000  -0.0000000  -0.0000000  -0.0000000  -0.0000000  -0.0000000  -0.0000000
 NQMom=    0.0000000   0.0000000   0.0000000   2.0440000   0.0000000   0.0000000   0.0000000   0.0000000   0.0000000   0.0000000
 NMagM=    2.7928460   0.0000000   0.0000000   0.4037610   2.7928460   0.0000000   2.7928460   2.7928460   2.7928460   0.0000000
 AtZNuc=   1.0000000   8.0000000   6.0000000   7.0000000   1.0000000   6.0000000   1.0000000   1.0000000   1.0000000   6.0000000

  Atom        11          12          13          14          15          16          17          18          19          20
 IAtWgt=          16          12          12          12          12          12          12          19          19          19
 AtmWgt=  15.9949146  12.0000000  12.0000000  12.0000000  12.0000000  12.0000000  12.0000000  18.9984032  18.9984032  18.9984032
 NucSpn=           0           0           0           0           0           0           0           1           1           1
 AtZEff=  -0.0000000  -0.0000000  -0.0000000  -0.0000000  -0.0000000  -0.0000000  -0.0000000  -0.0000000  -0.0000000  -0.0000000
 NQMom=    0.0000000   0.0000000   0.0000000   0.0000000   0.0000000   0.0000000   0.0000000   0.0000000   0.0000000   0.0000000
 NMagM=    0.0000000   0.0000000   0.0000000   0.0000000   0.0000000   0.0000000   0.0000000   2.6288670   2.6288670   2.6288670
 AtZNuc=   8.0000000   6.0000000   6.0000000   6.0000000   6.0000000   6.0000000   6.0000000   9.0000000   9.0000000   9.0000000

  Atom        21          22          23          24          25
 IAtWgt=          19          19          19          19          19
 AtmWgt=  18.9984032  18.9984032  18.9984032  18.9984032  18.9984032
 NucSpn=           1           1           1           1           1
 AtZEff=  -0.0000000  -0.0000000  -0.0000000  -0.0000000  -0.0000000
 NQMom=    0.0000000   0.0000000   0.0000000   0.0000000   0.0000000
 NMagM=    2.6288670   2.6288670   2.6288670   2.6288670   2.6288670
 AtZNuc=   9.0000000   9.0000000   9.0000000   9.0000000   9.0000000
 Leave Link  101 at Wed Aug 28 19:04:27 2024, MaxMem=  8589934592 cpu:               7.2 elap:               0.3
 (Enter /share/apps/g16.b01_avx2/g16/l103.exe)

 GradGradGradGradGradGradGradGradGradGradGradGradGradGradGradGradGradGrad
 Berny optimization.
 Initialization pass.
                           ----------------------------
                           !    Initial Parameters    !
                           ! (Angstroms and Degrees)  !
 --------------------------                            --------------------------
 ! Name  Definition              Value          Derivative Info.                !
 --------------------------------------------------------------------------------
 ! R1    R(1,4)                  1.0152         calculate D2E/DX2 analytically  !
 ! R2    R(2,3)                  1.2272         calculate D2E/DX2 analytically  !
 ! R3    R(3,4)                  1.7805         calculate D2E/DX2 analytically  !
 ! R4    R(3,10)                 1.5101         calculate D2E/DX2 analytically  !
 ! R5    R(3,11)                 1.4956         calculate D2E/DX2 analytically  !
 ! R6    R(4,5)                  1.0156         calculate D2E/DX2 analytically  !
 ! R7    R(4,6)                  1.4634         calculate D2E/DX2 analytically  !
 ! R8    R(6,7)                  1.0856         calculate D2E/DX2 analytically  !
 ! R9    R(6,8)                  1.0896         calculate D2E/DX2 analytically  !
 ! R10   R(6,9)                  1.0902         calculate D2E/DX2 analytically  !
 ! R11   R(10,23)                1.35           calculate D2E/DX2 analytically  !
 ! R12   R(10,24)                1.35           calculate D2E/DX2 analytically  !
 ! R13   R(10,25)                1.35           calculate D2E/DX2 analytically  !
 ! R14   R(11,12)                1.3427         calculate D2E/DX2 analytically  !
 ! R15   R(12,13)                1.3903         calculate D2E/DX2 analytically  !
 ! R16   R(12,14)                1.3915         calculate D2E/DX2 analytically  !
 ! R17   R(13,15)                1.3836         calculate D2E/DX2 analytically  !
 ! R18   R(13,18)                1.3329         calculate D2E/DX2 analytically  !
 ! R19   R(14,16)                1.3834         calculate D2E/DX2 analytically  !
 ! R20   R(14,19)                1.3274         calculate D2E/DX2 analytically  !
 ! R21   R(15,17)                1.3838         calculate D2E/DX2 analytically  !
 ! R22   R(15,20)                1.3278         calculate D2E/DX2 analytically  !
 ! R23   R(16,17)                1.3848         calculate D2E/DX2 analytically  !
 ! R24   R(16,21)                1.328          calculate D2E/DX2 analytically  !
 ! R25   R(17,22)                1.3267         calculate D2E/DX2 analytically  !
 ! A1    A(2,3,4)              107.9698         calculate D2E/DX2 analytically  !
 ! A2    A(2,3,10)             124.0725         calculate D2E/DX2 analytically  !
 ! A3    A(2,3,11)             116.8869         calculate D2E/DX2 analytically  !
 ! A4    A(4,3,10)             102.6399         calculate D2E/DX2 analytically  !
 ! A5    A(4,3,11)              95.977          calculate D2E/DX2 analytically  !
 ! A6    A(10,3,11)            104.7864         calculate D2E/DX2 analytically  !
 ! A7    A(1,4,3)              102.1534         calculate D2E/DX2 analytically  !
 ! A8    A(1,4,5)              106.8978         calculate D2E/DX2 analytically  !
 ! A9    A(1,4,6)              111.2992         calculate D2E/DX2 analytically  !
 ! A10   A(3,4,5)              109.4823         calculate D2E/DX2 analytically  !
 ! A11   A(3,4,6)              113.8094         calculate D2E/DX2 analytically  !
 ! A12   A(5,4,6)              112.5123         calculate D2E/DX2 analytically  !
 ! A13   A(4,6,7)              110.3289         calculate D2E/DX2 analytically  !
 ! A14   A(4,6,8)              108.0218         calculate D2E/DX2 analytically  !
 ! A15   A(4,6,9)              110.9623         calculate D2E/DX2 analytically  !
 ! A16   A(7,6,8)              109.0111         calculate D2E/DX2 analytically  !
 ! A17   A(7,6,9)              109.0598         calculate D2E/DX2 analytically  !
 ! A18   A(8,6,9)              109.4245         calculate D2E/DX2 analytically  !
 ! A19   A(3,10,23)            107.0541         calculate D2E/DX2 analytically  !
 ! A20   A(3,10,24)            112.3267         calculate D2E/DX2 analytically  !
 ! A21   A(3,10,25)            110.7514         calculate D2E/DX2 analytically  !
 ! A22   A(23,10,24)           108.9191         calculate D2E/DX2 analytically  !
 ! A23   A(23,10,25)           108.2595         calculate D2E/DX2 analytically  !
 ! A24   A(24,10,25)           109.4088         calculate D2E/DX2 analytically  !
 ! A25   A(3,11,12)            115.5556         calculate D2E/DX2 analytically  !
 ! A26   A(11,12,13)           121.0857         calculate D2E/DX2 analytically  !
 ! A27   A(11,12,14)           121.504          calculate D2E/DX2 analytically  !
 ! A28   A(13,12,14)           117.3723         calculate D2E/DX2 analytically  !
 ! A29   A(12,13,15)           121.8508         calculate D2E/DX2 analytically  !
 ! A30   A(12,13,18)           119.3755         calculate D2E/DX2 analytically  !
 ! A31   A(15,13,18)           118.7734         calculate D2E/DX2 analytically  !
 ! A32   A(12,14,16)           121.4881         calculate D2E/DX2 analytically  !
 ! A33   A(12,14,19)           119.6596         calculate D2E/DX2 analytically  !
 ! A34   A(16,14,19)           118.847          calculate D2E/DX2 analytically  !
 ! A35   A(13,15,17)           119.6426         calculate D2E/DX2 analytically  !
 ! A36   A(13,15,20)           120.4039         calculate D2E/DX2 analytically  !
 ! A37   A(17,15,20)           119.9524         calculate D2E/DX2 analytically  !
 ! A38   A(14,16,17)           119.9596         calculate D2E/DX2 analytically  !
 ! A39   A(14,16,21)           120.2943         calculate D2E/DX2 analytically  !
 ! A40   A(17,16,21)           119.7455         calculate D2E/DX2 analytically  !
 ! A41   A(15,17,16)           119.6832         calculate D2E/DX2 analytically  !
 ! A42   A(15,17,22)           120.1759         calculate D2E/DX2 analytically  !
 ! A43   A(16,17,22)           120.1407         calculate D2E/DX2 analytically  !
 ! D1    D(2,3,4,1)             65.5037         calculate D2E/DX2 analytically  !
 ! D2    D(2,3,4,5)            178.5561         calculate D2E/DX2 analytically  !
 ! D3    D(2,3,4,6)            -54.5728         calculate D2E/DX2 analytically  !
 ! D4    D(10,3,4,1)          -161.9384         calculate D2E/DX2 analytically  !
 ! D5    D(10,3,4,5)           -48.886          calculate D2E/DX2 analytically  !
 ! D6    D(10,3,4,6)            77.9851         calculate D2E/DX2 analytically  !
 ! D7    D(11,3,4,1)           -55.292          calculate D2E/DX2 analytically  !
 ! D8    D(11,3,4,5)            57.7604         calculate D2E/DX2 analytically  !
 ! D9    D(11,3,4,6)          -175.3685         calculate D2E/DX2 analytically  !
 ! D10   D(2,3,10,23)          -58.0798         calculate D2E/DX2 analytically  !
 ! D11   D(2,3,10,24)         -177.5922         calculate D2E/DX2 analytically  !
 ! D12   D(2,3,10,25)           59.7405         calculate D2E/DX2 analytically  !
 ! D13   D(4,3,10,23)          179.6859         calculate D2E/DX2 analytically  !
 ! D14   D(4,3,10,24)           60.1735         calculate D2E/DX2 analytically  !
 ! D15   D(4,3,10,25)          -62.4938         calculate D2E/DX2 analytically  !
 ! D16   D(11,3,10,23)          79.9233         calculate D2E/DX2 analytically  !
 ! D17   D(11,3,10,24)         -39.589          calculate D2E/DX2 analytically  !
 ! D18   D(11,3,10,25)        -162.2564         calculate D2E/DX2 analytically  !
 ! D19   D(2,3,11,12)           -3.4956         calculate D2E/DX2 analytically  !
 ! D20   D(4,3,11,12)          110.1379         calculate D2E/DX2 analytically  !
 ! D21   D(10,3,11,12)        -145.0772         calculate D2E/DX2 analytically  !
 ! D22   D(1,4,6,7)            167.474          calculate D2E/DX2 analytically  !
 ! D23   D(1,4,6,8)            -73.4581         calculate D2E/DX2 analytically  !
 ! D24   D(1,4,6,9)             46.4856         calculate D2E/DX2 analytically  !
 ! D25   D(3,4,6,7)            -77.7537         calculate D2E/DX2 analytically  !
 ! D26   D(3,4,6,8)             41.3142         calculate D2E/DX2 analytically  !
 ! D27   D(3,4,6,9)            161.2579         calculate D2E/DX2 analytically  !
 ! D28   D(5,4,6,7)             47.5206         calculate D2E/DX2 analytically  !
 ! D29   D(5,4,6,8)            166.5885         calculate D2E/DX2 analytically  !
 ! D30   D(5,4,6,9)            -73.4678         calculate D2E/DX2 analytically  !
 ! D31   D(3,11,12,13)        -103.5116         calculate D2E/DX2 analytically  !
 ! D32   D(3,11,12,14)          78.7882         calculate D2E/DX2 analytically  !
 ! D33   D(11,12,13,15)       -177.1331         calculate D2E/DX2 analytically  !
 ! D34   D(11,12,13,18)          3.068          calculate D2E/DX2 analytically  !
 ! D35   D(14,12,13,15)          0.6589         calculate D2E/DX2 analytically  !
 ! D36   D(14,12,13,18)       -179.14           calculate D2E/DX2 analytically  !
 ! D37   D(11,12,14,16)        177.4962         calculate D2E/DX2 analytically  !
 ! D38   D(11,12,14,19)         -1.6568         calculate D2E/DX2 analytically  !
 ! D39   D(13,12,14,16)         -0.2859         calculate D2E/DX2 analytically  !
 ! D40   D(13,12,14,19)       -179.4389         calculate D2E/DX2 analytically  !
 ! D41   D(12,13,15,17)         -0.6664         calculate D2E/DX2 analytically  !
 ! D42   D(12,13,15,20)        179.7045         calculate D2E/DX2 analytically  !
 ! D43   D(18,13,15,17)        179.1338         calculate D2E/DX2 analytically  !
 ! D44   D(18,13,15,20)         -0.4954         calculate D2E/DX2 analytically  !
 ! D45   D(12,14,16,17)         -0.0743         calculate D2E/DX2 analytically  !
 ! D46   D(12,14,16,21)       -179.795          calculate D2E/DX2 analytically  !
 ! D47   D(19,14,16,17)        179.0854         calculate D2E/DX2 analytically  !
 ! D48   D(19,14,16,21)         -0.6353         calculate D2E/DX2 analytically  !
 ! D49   D(13,15,17,16)          0.2809         calculate D2E/DX2 analytically  !
 ! D50   D(13,15,17,22)       -179.8754         calculate D2E/DX2 analytically  !
 ! D51   D(20,15,17,16)        179.9118         calculate D2E/DX2 analytically  !
 ! D52   D(20,15,17,22)         -0.2446         calculate D2E/DX2 analytically  !
 ! D53   D(14,16,17,15)          0.0802         calculate D2E/DX2 analytically  !
 ! D54   D(14,16,17,22)       -179.7635         calculate D2E/DX2 analytically  !
 ! D55   D(21,16,17,15)        179.8024         calculate D2E/DX2 analytically  !
 ! D56   D(21,16,17,22)         -0.0413         calculate D2E/DX2 analytically  !
 --------------------------------------------------------------------------------
 Trust Radius=3.00D-01 FncErr=5.00D-06 GrdErr=5.00D-06 EigMax=2.50D+02 EigMin=1.00D-04
 Number of steps in this run=    134 maximum allowed number of steps=    150.
 Search for a saddle point of order  1.
 GradGradGradGradGradGradGradGradGradGradGradGradGradGradGradGradGradGrad

 Leave Link  103 at Wed Aug 28 19:04:28 2024, MaxMem=  8589934592 cpu:               0.3 elap:               0.0
 (Enter /share/apps/g16.b01_avx2/g16/l202.exe)
                          Input orientation:                          
 ---------------------------------------------------------------------
 Center     Atomic      Atomic             Coordinates (Angstroms)
 Number     Number       Type             X           Y           Z
 ---------------------------------------------------------------------
      1          1           0       -2.326566    1.641504    0.162606
      2          8           0       -1.823772   -0.725639    1.240224
      3          6           0       -2.257745   -0.584160    0.101089
      4          7           0       -3.090357    0.987705    0.021728
      5          1           0       -3.438781    1.139293   -0.920164
      6          6           0       -4.129761    1.157628    1.037757
      7          1           0       -5.027080    0.616655    0.753504
      8          1           0       -3.753187    0.752118    1.976328
      9          1           0       -4.376399    2.211177    1.171006
     10          6           0       -3.251764   -1.517757   -0.547600
     11          8           0       -1.258660   -0.285496   -0.971088
     12          6           0        0.008670   -0.131356   -0.555206
     13          6           0        0.581659    1.131115   -0.451657
     14          6           0        0.814272   -1.226032   -0.256722
     15          6           0        1.903338    1.304921   -0.081032
     16          6           0        2.135320   -1.068935    0.122576
     17          6           0        2.683421    0.199763    0.210406
     18          9           0       -0.158784    2.208505   -0.711581
     19          9           0        0.316746   -2.452994   -0.351468
     20          9           0        2.422915    2.523947    0.003140
     21          9           0        2.883973   -2.130662    0.398185
     22          9           0        3.951251    0.354320    0.569262
     23          9           0       -2.700403   -2.750012   -0.540701
     24          9           0       -3.527053   -1.168530   -1.822259
     25          9           0       -4.398877   -1.563644    0.162700
 ---------------------------------------------------------------------
                    Distance matrix (angstroms):
                    1          2          3          4          5
     1  H    0.000000
     2  O    2.649043   0.000000
     3  C    2.227577   1.227183   0.000000
     4  N    1.015222   2.454489   1.780534   0.000000
     5  H    1.631450   3.279253   2.325531   1.015647   0.000000
     6  C    2.061926   2.984170   2.723163   1.463403   2.076354
     7  H    2.948263   3.507112   3.088174   2.103347   2.365800
     8  H    2.473023   2.539342   2.745634   2.077331   2.939119
     9  H    2.354403   3.891733   3.667060   2.114622   2.530031
    10  C    3.367687   2.421348   1.510124   2.574398   2.689553
    11  O    2.477703   2.324431   1.495639   2.441688   2.604908
    12  C    3.018545   2.633360   2.402580   3.345014   3.692243
    13  C    3.015889   3.477944   3.363021   3.705180   4.047654
    14  C    4.273577   3.074169   3.158689   4.497143   4.911556
    15  C    4.250263   4.445249   4.573446   5.004815   5.410158
    16  C    5.220777   4.128123   4.419784   5.616728   6.085571
    17  C    5.213528   4.715049   5.004159   5.830349   6.296210
    18  F    2.405197   3.897554   3.586788   3.259174   3.456169
    19  F    4.900641   3.177901   3.213309   4.856546   5.227994
    20  F    4.833395   5.488582   5.619475   5.723334   6.093376
    21  F    6.436960   4.984574   5.377471   6.749708   7.239328
    22  F    6.421308   5.913323   6.296949   7.091207   7.579390
    23  F    4.463161   2.835183   2.301903   3.799858   3.976920
    24  F    3.643783   3.532156   2.377373   2.870600   2.479439
    25  F    3.816732   2.914528   2.355341   2.870797   3.065982
                    6          7          8          9         10
     6  C    0.000000
     7  H    1.085649   0.000000
     8  H    1.089570   1.771003   0.000000
     9  H    1.090207   1.772059   1.779267   0.000000
    10  C    3.231396   3.065996   3.431322   4.257154   0.000000
    11  O    3.789629   4.241354   3.998321   4.532355   2.381233
    12  C    4.617967   5.256522   4.619606   5.262708   3.542964
    13  C    4.941309   5.759777   4.982935   5.327467   4.660564
    14  C    5.639235   6.207854   5.455389   6.387165   4.086852
    15  C    6.137725   7.014332   6.044386   6.467147   5.895784
    16  C    6.711660   7.385070   6.436392   7.366195   5.447132
    17  C    6.929752   7.740838   6.697275   7.403350   6.225020
    18  F    4.464659   5.327360   4.718649   4.618703   4.845456
    19  F    5.893892   6.261005   5.679413   6.789553   3.694239
    20  F    6.773096   7.726787   6.721390   6.905969   6.988610
    21  F    7.772668   8.382050   7.406271   8.494811   6.238384
    22  F    8.134344   8.984052   7.841967   8.553348   7.525655
    23  F    4.450196   4.292184   4.439449   5.509292   1.350000
    24  F    3.735500   3.474410   4.262545   4.593849   1.350000
    25  F    2.871144   2.344651   3.011464   3.907231   1.350000
                   11         12         13         14         15
    11  O    0.000000
    12  C    1.342700   0.000000
    13  C    2.379783   1.390278   0.000000
    14  C    2.385786   1.391547   2.376605   0.000000
    15  C    3.649638   2.424355   1.383621   2.760916   0.000000
    16  C    3.650887   2.420967   2.753875   1.383371   2.393839
    17  C    4.143840   2.801802   2.392310   2.396835   1.383777
    18  F    2.738085   2.351052   1.332886   3.598580   2.338034
    19  F    2.750251   2.350835   3.595282   1.327383   4.088072
    20  F    4.732450   3.631937   2.353093   4.088717   1.327806
    21  F    4.737188   3.629538   4.081920   2.351791   3.604792
    22  F    5.470394   4.128469   3.605529   3.608379   2.349569
    23  F    2.887507   3.767844   5.083602   3.841366   6.152090
    24  F    2.578730   3.896472   4.903921   4.615335   6.216026
    25  F    3.574926   4.689702   5.696042   5.240879   6.928635
                   16         17         18         19         20
    16  C    0.000000
    17  C    1.384819   0.000000
    18  F    4.086605   3.600449   0.000000
    19  F    2.333998   3.599163   4.699509   0.000000
    20  F    3.606352   2.347904   2.697313   5.415869   0.000000
    21  F    1.328046   2.346564   5.414640   2.693795   4.694041
    22  F    2.350061   1.326672   4.687318   4.683843   2.713593
    23  F    5.162380   6.184730   5.574578   3.037633   7.372841
    24  F    5.987886   6.676372   4.897266   4.311365   7.236615
    25  F    6.553020   7.298686   5.742113   4.826221   7.954288
                   21         22         23         24         25
    21  F    0.000000
    22  F    2.709887   0.000000
    23  F    5.696521   7.423839   0.000000
    24  F    6.852542   7.997717   2.197005   0.000000
    25  F    7.308684   8.577209   2.187935   2.203691   0.000000
 Stoichiometry    C9H5F8NO2
 Framework group  C1[X(C9H5F8NO2)]
 Deg. of freedom    69
 Full point group                 C1      NOp   1
 Largest Abelian subgroup         C1      NOp   1
 Largest concise Abelian subgroup C1      NOp   1
                         Standard orientation:                         
 ---------------------------------------------------------------------
 Center     Atomic      Atomic             Coordinates (Angstroms)
 Number     Number       Type             X           Y           Z
 ---------------------------------------------------------------------
      1          1           0       -1.396013    2.220532    0.239945
      2          8           0       -1.256675   -0.142017    1.430061
      3          6           0       -1.717202    0.017156    0.303759
      4          7           0       -2.267743    1.705058    0.168881
      5          1           0       -2.632297    1.868864   -0.764825
      6          6           0       -3.208663    2.105014    1.215902
      7          1           0       -4.199497    1.716868    1.000902
      8          1           0       -2.860600    1.686443    2.159730
      9          1           0       -3.261840    3.190788    1.298485
     10          6           0       -2.889815   -0.757999   -0.248136
     11          8           0       -0.737595    0.082224   -0.824545
     12          6           0        0.556844    0.031486   -0.471420
     13          6           0        1.344494    1.177100   -0.464654
     14          6           0        1.174720   -1.171687   -0.144300
     15          6           0        2.693482    1.133908   -0.160070
     16          6           0        2.520635   -1.230768    0.169923
     17          6           0        3.284083   -0.075431    0.161689
     18          9           0        0.789679    2.353725   -0.755034
     19          9           0        0.467895   -2.295222   -0.147475
     20          9           0        3.420080    2.245243   -0.167905
     21          9           0        3.087042   -2.392662    0.474705
     22          9           0        4.576171   -0.128662    0.457887
     23          9           0       -2.560740   -2.066131   -0.193348
     24          9           0       -3.165191   -0.429161   -1.528188
     25          9           0       -3.989698   -0.566377    0.510836
 ---------------------------------------------------------------------
 Rotational constants (GHZ):           0.6018678           0.2170876           0.1759486
 Leave Link  202 at Wed Aug 28 19:04:28 2024, MaxMem=  8589934592 cpu:               0.3 elap:               0.0
 (Enter /share/apps/g16.b01_avx2/g16/l301.exe)
 Standard basis: def2TZVP (5D, 7F)
 Ernie: Thresh=  0.10000D-02 Tol=  0.10000D-05 Strict=F.
 There are   750 symmetry adapted cartesian basis functions of A   symmetry.
 There are   650 symmetry adapted basis functions of A   symmetry.
   650 basis functions,  1060 primitive gaussians,   750 cartesian basis functions
    77 alpha electrons       77 beta electrons
       nuclear repulsion energy      1806.3872792932 Hartrees.
 IExCor= 1009 DFT=T Ex+Corr=PBE1PBE ExCW=0 ScaHFX=  0.250000
 ScaDFX=  0.750000  0.750000  1.000000  1.000000 ScalE2=  1.000000  1.000000
 IRadAn=  99590 IRanWt=     -1 IRanGd=            0 ICorTp=0 IEmpDi=131
 NAtoms=   25 NActive=   25 NUniq=   25 SFac= 1.00D+00 NAtFMM=   60 NAOKFM=F Big=F
 Integral buffers will be    131072 words long.
 Raffenetti 2 integral format.
 Two-electron integral symmetry is turned on.
 R6Disp:  Grimme-D3 Dispersion energy=       -0.0168841377 Hartrees.
 Nuclear repulsion after empirical dispersion term =     1806.3703951555 Hartrees.
 Force inversion solution in PCM.
 ------------------------------------------------------------------------------
 Polarizable Continuum Model (PCM)
 =================================
 Model                : PCM.
 Atomic radii         : UFF (Universal Force Field).
 Polarization charges : Total charges.
 Charge compensation  : None.
 Solution method      : Matrix inversion.
 Cavity type          : Scaled VdW (van der Waals Surface) (Alpha=1.100).
 Cavity algorithm     : GePol (No added spheres)
                        Default sphere list used, NSphG=   25.
                        Lebedev-Laikov grids with approx.  5.0 points / Ang**2.
                        Smoothing algorithm: York/Karplus (Gamma=1.0000).
                        Polarization charges: spherical gaussians, with
                                              point-specific exponents (IZeta= 3).
                        Self-potential: point-specific (ISelfS= 7).
                        Self-field    : sphere-specific E.n sum rule (ISelfD= 2).
 1st derivatives      : Analytical E(r).r(x)/FMM algorithm (CHGder, D1EAlg=3).
                        Cavity 1st derivative terms included.
 2nd derivatives      : Analytical E(r).r(xy)/FMM algorithm (CHGder, D2EAlg=3).
                        Cavity 2nd derivative terms included.
 Solvent              : Water, Eps=  78.355300 Eps(inf)=   1.777849
 ------------------------------------------------------------------------------
 GePol: Number of generator spheres                  =      25
 GePol: Total number of spheres                      =      25
 GePol: Number of exposed spheres                    =      25 (100.00%)
 GePol: Number of points                             =    2261
 GePol: Average weight of points                     =       0.13
 GePol: Minimum weight of points                     =   0.11D-11
 GePol: Maximum weight of points                     =    0.20577
 GePol: Number of points with low weight             =     104
 GePol: Fraction of low-weight points (<1% of avg)   =       4.60%
 GePol: Cavity surface area                          =    285.077 Ang**2
 GePol: Cavity volume                                =    305.178 Ang**3
 Leave Link  301 at Wed Aug 28 19:04:28 2024, MaxMem=  8589934592 cpu:               1.7 elap:               0.1
 (Enter /share/apps/g16.b01_avx2/g16/l302.exe)
 NPDir=0 NMtPBC=     1 NCelOv=     1 NCel=       1 NClECP=     1 NCelD=      1
         NCelK=      1 NCelE2=     1 NClLst=     1 CellRange=     0.0.
 One-electron integrals computed using PRISM.
 One-electron integral symmetry used in STVInt
   1 Symmetry operations used in ECPInt.
 ECPInt:  NShTT=   28920 NPrTT=   93120 LenC2=   24817 LenP2D=   56092.
 LDataN:  DoStor=T MaxTD1= 6 Len=  172
 NBasis=   650 RedAO= T EigKep=  1.45D-05  NBF=   650
 NBsUse=   650 1.00D-06 EigRej= -1.00D+00 NBFU=   650
 Precomputing XC quadrature grid using
 IXCGrd= 4 IRadAn=       99590 IRanWt=          -1 IRanGd=           0 AccXCQ= 0.00D+00.
 Generated NRdTot=       0 NPtTot=           0 NUsed=           0 NTot=          32
 NSgBfM=   737   737   737   737   737 MxSgAt=    25 MxSgA2=    25.
 Leave Link  302 at Wed Aug 28 19:04:29 2024, MaxMem=  8589934592 cpu:              11.8 elap:               0.5
 (Enter /share/apps/g16.b01_avx2/g16/l303.exe)
 DipDrv:  MaxL=1.
 Leave Link  303 at Wed Aug 28 19:04:29 2024, MaxMem=  8589934592 cpu:               1.9 elap:               0.1
 (Enter /share/apps/g16.b01_avx2/g16/l401.exe)
 ExpMin= 9.52D-02 ExpMax= 3.55D+04 ExpMxC= 1.21D+03 IAcc=4 IRadAn=    199590 AccDes= 0.00D+00
 Harris functional with IExCor= 1009 and IRadAn=  199590 diagonalized for initial guess.
 HarFok:  IExCor= 1009 AccDes= 0.00D+00 IRadAn=    199590 IDoV= 1 UseB2=F ITyADJ=14
 ICtDFT=  3500011 ScaDFX=  1.000000  1.000000  1.000000  1.000000
 FoFCou: FMM=F IPFlag=           0 FMFlag=      100000 FMFlg1=           0
         NFxFlg=           0 DoJE=T BraDBF=F KetDBF=T FulRan=T
         wScrn=  0.000000 ICntrl=       500 IOpCl=  0 I1Cent=   200000004 NGrid=           0
         NMat0=    1 NMatS0=      1 NMatT0=    0 NMatD0=    1 NMtDS0=    0 NMtDT0=    0
 Petite list used in FoFCou.
 Harris En= -1349.12218366688    
 JPrj=0 DoOrth=F DoCkMO=F.
 Leave Link  401 at Wed Aug 28 19:04:32 2024, MaxMem=  8589934592 cpu:              70.9 elap:               3.0
 (Enter /share/apps/g16.b01_avx2/g16/l502.exe)
 Integral symmetry usage will be decided dynamically.
 Closed shell SCF:
 Using DIIS extrapolation, IDIIS=  1040.
 NGot=  8589934592 LenX=  8588785261 LenY=  8588222011
 Requested convergence on RMS density matrix=1.00D-08 within 128 cycles.
 Requested convergence on MAX density matrix=1.00D-06.
 Requested convergence on             energy=1.00D-06.
 No special actions if energy rises.
 Fock matrices will be formed incrementally for  20 cycles.

 Cycle   1  Pass 1  IDiag  1:
 FoFJK:  IHMeth= 1 ICntrl=       0 DoSepK=F KAlg= 0 I1Cent=           0 FoldK=F
 IRaf= 790000000 NMat=       1 IRICut=       1 DoRegI=T DoRafI=F ISym2E= 0 IDoP0=0 IntGTp=1.
 FoFCou: FMM=F IPFlag=           0 FMFlag=      100000 FMFlg1=           0
         NFxFlg=           0 DoJE=F BraDBF=F KetDBF=F FulRan=T
         wScrn=  0.000000 ICntrl=         0 IOpCl=  0 I1Cent=           0 NGrid=           0
         NMat0=    1 NMatS0=      1 NMatT0=    0 NMatD0=    1 NMtDS0=    0 NMtDT0=    0
 Symmetry not used in FoFCou.
 Inv3:  Mode=1 IEnd=    15336363.
 Iteration    1 A*A^-1 deviation from unit magnitude is 3.11D-15 for   2122.
 Iteration    1 A*A^-1 deviation from orthogonality  is 1.44D-15 for   2089    221.
 Iteration    1 A^-1*A deviation from unit magnitude is 3.11D-15 for   2122.
 Iteration    1 A^-1*A deviation from orthogonality  is 1.78D-15 for   2245    614.
 E= -1348.82270998879    
 DIIS: error= 1.33D-02 at cycle   1 NSaved=   1.
 NSaved= 1 IEnMin= 1 EnMin= -1348.82270998879     IErMin= 1 ErrMin= 1.33D-02
 ErrMax= 1.33D-02  0.00D+00 EMaxC= 1.00D-01 BMatC= 3.96D-01 BMatP= 3.96D-01
 IDIUse=3 WtCom= 8.67D-01 WtEn= 1.33D-01
 Coeff-Com:  0.100D+01
 Coeff-En:   0.100D+01
 Coeff:      0.100D+01
 Gap=     0.256 Goal=   None    Shift=    0.000
 GapD=    0.256 DampG=1.000 DampE=0.500 DampFc=0.5000 IDamp=-1.
 Damping current iteration by 5.00D-01
 RMSDP=1.89D-03 MaxDP=1.81D-01              OVMax= 2.79D-01

 Cycle   2  Pass 1  IDiag  1:
 RMSU=  9.43D-04    CP:  9.96D-01
 E= -1348.89230703057     Delta-E=       -0.069597041782 Rises=F Damp=T
 DIIS: error= 4.78D-03 at cycle   2 NSaved=   2.
 NSaved= 2 IEnMin= 2 EnMin= -1348.89230703057     IErMin= 2 ErrMin= 4.78D-03
 ErrMax= 4.78D-03  0.00D+00 EMaxC= 1.00D-01 BMatC= 5.73D-02 BMatP= 3.96D-01
 IDIUse=3 WtCom= 9.52D-01 WtEn= 4.78D-02
 Coeff-Com:  0.161D+00 0.839D+00
 Coeff-En:   0.329D+00 0.671D+00
 Coeff:      0.169D+00 0.831D+00
 Gap=     0.300 Goal=   None    Shift=    0.000
 RMSDP=6.96D-04 MaxDP=7.45D-02 DE=-6.96D-02 OVMax= 1.86D-01

 Cycle   3  Pass 1  IDiag  1:
 RMSU=  5.79D-04    CP:  9.85D-01  5.98D-01
 E= -1349.04116063305     Delta-E=       -0.148853602482 Rises=F Damp=F
 DIIS: error= 6.16D-03 at cycle   3 NSaved=   3.
 NSaved= 3 IEnMin= 3 EnMin= -1349.04116063305     IErMin= 2 ErrMin= 4.78D-03
 ErrMax= 6.16D-03  0.00D+00 EMaxC= 1.00D-01 BMatC= 4.15D-02 BMatP= 5.73D-02
 IDIUse=3 WtCom= 9.38D-01 WtEn= 6.16D-02
 Coeff-Com: -0.220D-01 0.455D+00 0.567D+00
 Coeff-En:   0.000D+00 0.000D+00 0.100D+01
 Coeff:     -0.206D-01 0.427D+00 0.593D+00
 Gap=     0.249 Goal=   None    Shift=    0.000
 RMSDP=3.47D-04 MaxDP=2.41D-02 DE=-1.49D-01 OVMax= 6.27D-02

 Cycle   4  Pass 1  IDiag  1:
 RMSU=  3.15D-04    CP:  9.82D-01  6.98D-01  8.14D-01
 E= -1349.06654157369     Delta-E=       -0.025380940640 Rises=F Damp=F
 DIIS: error= 1.98D-03 at cycle   4 NSaved=   4.
 NSaved= 4 IEnMin= 4 EnMin= -1349.06654157369     IErMin= 4 ErrMin= 1.98D-03
 ErrMax= 1.98D-03  0.00D+00 EMaxC= 1.00D-01 BMatC= 6.20D-03 BMatP= 4.15D-02
 IDIUse=3 WtCom= 9.80D-01 WtEn= 1.98D-02
 Coeff-Com: -0.341D-01 0.137D+00 0.328D+00 0.569D+00
 Coeff-En:   0.000D+00 0.000D+00 0.111D+00 0.889D+00
 Coeff:     -0.334D-01 0.135D+00 0.323D+00 0.575D+00
 Gap=     0.248 Goal=   None    Shift=    0.000
 RMSDP=1.11D-04 MaxDP=7.18D-03 DE=-2.54D-02 OVMax= 1.97D-02

 Cycle   5  Pass 1  IDiag  1:
 RMSU=  6.94D-05    CP:  9.82D-01  6.96D-01  8.95D-01  7.67D-01
 E= -1349.07074251715     Delta-E=       -0.004200943456 Rises=F Damp=F
 DIIS: error= 4.76D-04 at cycle   5 NSaved=   5.
 NSaved= 5 IEnMin= 5 EnMin= -1349.07074251715     IErMin= 5 ErrMin= 4.76D-04
 ErrMax= 4.76D-04  0.00D+00 EMaxC= 1.00D-01 BMatC= 5.51D-04 BMatP= 6.20D-03
 IDIUse=3 WtCom= 9.95D-01 WtEn= 4.76D-03
 Coeff-Com: -0.160D-01 0.368D-01 0.116D+00 0.312D+00 0.551D+00
 Coeff-En:   0.000D+00 0.000D+00 0.000D+00 0.219D-01 0.978D+00
 Coeff:     -0.159D-01 0.366D-01 0.115D+00 0.311D+00 0.553D+00
 Gap=     0.247 Goal=   None    Shift=    0.000
 RMSDP=3.45D-05 MaxDP=2.05D-03 DE=-4.20D-03 OVMax= 4.49D-03

 Cycle   6  Pass 1  IDiag  1:
 RMSU=  1.74D-05    CP:  9.82D-01  7.05D-01  8.77D-01  7.81D-01  6.26D-01
 E= -1349.07114359162     Delta-E=       -0.000401074469 Rises=F Damp=F
 DIIS: error= 1.88D-04 at cycle   6 NSaved=   6.
 NSaved= 6 IEnMin= 6 EnMin= -1349.07114359162     IErMin= 6 ErrMin= 1.88D-04
 ErrMax= 1.88D-04  0.00D+00 EMaxC= 1.00D-01 BMatC= 2.30D-05 BMatP= 5.51D-04
 IDIUse=3 WtCom= 9.98D-01 WtEn= 1.88D-03
 Coeff-Com: -0.578D-02 0.966D-02 0.322D-01 0.109D+00 0.256D+00 0.598D+00
 Coeff-En:   0.000D+00 0.000D+00 0.000D+00 0.000D+00 0.000D+00 0.100D+01
 Coeff:     -0.577D-02 0.964D-02 0.321D-01 0.109D+00 0.256D+00 0.599D+00
 Gap=     0.247 Goal=   None    Shift=    0.000
 RMSDP=6.85D-06 MaxDP=4.04D-04 DE=-4.01D-04 OVMax= 1.07D-03

 Cycle   7  Pass 1  IDiag  1:
 RMSU=  5.38D-06    CP:  9.82D-01  7.06D-01  8.77D-01  7.75D-01  6.41D-01
                    CP:  8.05D-01
 E= -1349.07116038362     Delta-E=       -0.000016791999 Rises=F Damp=F
 DIIS: error= 3.48D-05 at cycle   7 NSaved=   7.
 NSaved= 7 IEnMin= 7 EnMin= -1349.07116038362     IErMin= 7 ErrMin= 3.48D-05
 ErrMax= 3.48D-05  0.00D+00 EMaxC= 1.00D-01 BMatC= 2.13D-06 BMatP= 2.30D-05
 IDIUse=1 WtCom= 1.00D+00 WtEn= 0.00D+00
 Coeff-Com: -0.162D-02 0.198D-02 0.584D-02 0.277D-01 0.812D-01 0.284D+00
 Coeff-Com:  0.600D+00
 Coeff:     -0.162D-02 0.198D-02 0.584D-02 0.277D-01 0.812D-01 0.284D+00
 Coeff:      0.600D+00
 Gap=     0.247 Goal=   None    Shift=    0.000
 RMSDP=2.80D-06 MaxDP=2.32D-04 DE=-1.68D-05 OVMax= 3.54D-04

 Cycle   8  Pass 1  IDiag  1:
 RMSU=  1.55D-06    CP:  9.82D-01  7.05D-01  8.77D-01  7.80D-01  6.44D-01
                    CP:  8.54D-01  7.79D-01
 E= -1349.07116180500     Delta-E=       -0.000001421384 Rises=F Damp=F
 DIIS: error= 1.60D-05 at cycle   8 NSaved=   8.
 NSaved= 8 IEnMin= 8 EnMin= -1349.07116180500     IErMin= 8 ErrMin= 1.60D-05
 ErrMax= 1.60D-05  0.00D+00 EMaxC= 1.00D-01 BMatC= 2.96D-07 BMatP= 2.13D-06
 IDIUse=1 WtCom= 1.00D+00 WtEn= 0.00D+00
 Coeff-Com: -0.193D-03 0.164D-04-0.847D-03 0.133D-02 0.116D-01 0.708D-01
 Coeff-Com:  0.308D+00 0.609D+00
 Coeff:     -0.193D-03 0.164D-04-0.847D-03 0.133D-02 0.116D-01 0.708D-01
 Coeff:      0.308D+00 0.609D+00
 Gap=     0.247 Goal=   None    Shift=    0.000
 RMSDP=8.04D-07 MaxDP=4.91D-05 DE=-1.42D-06 OVMax= 1.59D-04

 Cycle   9  Pass 1  IDiag  1:
 RMSU=  4.25D-07    CP:  9.82D-01  7.06D-01  8.77D-01  7.80D-01  6.47D-01
                    CP:  8.58D-01  8.35D-01  7.41D-01
 E= -1349.07116202653     Delta-E=       -0.000000221533 Rises=F Damp=F
 DIIS: error= 4.13D-06 at cycle   9 NSaved=   9.
 NSaved= 9 IEnMin= 9 EnMin= -1349.07116202653     IErMin= 9 ErrMin= 4.13D-06
 ErrMax= 4.13D-06  0.00D+00 EMaxC= 1.00D-01 BMatC= 2.01D-08 BMatP= 2.96D-07
 IDIUse=1 WtCom= 1.00D+00 WtEn= 0.00D+00
 Coeff-Com:  0.575D-04-0.155D-03-0.930D-03-0.202D-02-0.292D-02 0.298D-03
 Coeff-Com:  0.695D-01 0.271D+00 0.666D+00
 Coeff:      0.575D-04-0.155D-03-0.930D-03-0.202D-02-0.292D-02 0.298D-03
 Coeff:      0.695D-01 0.271D+00 0.666D+00
 Gap=     0.247 Goal=   None    Shift=    0.000
 RMSDP=2.37D-07 MaxDP=1.25D-05 DE=-2.22D-07 OVMax= 3.31D-05

 Cycle  10  Pass 1  IDiag  1:
 RMSU=  1.23D-07    CP:  9.82D-01  7.06D-01  8.77D-01  7.80D-01  6.46D-01
                    CP:  8.62D-01  8.46D-01  8.21D-01  7.34D-01
 E= -1349.07116204336     Delta-E=       -0.000000016831 Rises=F Damp=F
 DIIS: error= 4.64D-07 at cycle  10 NSaved=  10.
 NSaved=10 IEnMin=10 EnMin= -1349.07116204336     IErMin=10 ErrMin= 4.64D-07
 ErrMax= 4.64D-07  0.00D+00 EMaxC= 1.00D-01 BMatC= 5.09D-10 BMatP= 2.01D-08
 IDIUse=1 WtCom= 1.00D+00 WtEn= 0.00D+00
 Coeff-Com:  0.189D-04-0.454D-04-0.298D-03-0.652D-03-0.120D-02-0.140D-02
 Coeff-Com:  0.172D-01 0.762D-01 0.231D+00 0.679D+00
 Coeff:      0.189D-04-0.454D-04-0.298D-03-0.652D-03-0.120D-02-0.140D-02
 Coeff:      0.172D-01 0.762D-01 0.231D+00 0.679D+00
 Gap=     0.247 Goal=   None    Shift=    0.000
 RMSDP=5.24D-08 MaxDP=2.83D-06 DE=-1.68D-08 OVMax= 1.08D-05

 Cycle  11  Pass 1  IDiag  1:
 RMSU=  3.78D-08    CP:  9.82D-01  7.06D-01  8.77D-01  7.80D-01  6.46D-01
                    CP:  8.62D-01  8.48D-01  8.17D-01  7.74D-01  8.08D-01
 E= -1349.07116204370     Delta-E=       -0.000000000338 Rises=F Damp=F
 DIIS: error= 2.65D-07 at cycle  11 NSaved=  11.
 NSaved=11 IEnMin=11 EnMin= -1349.07116204370     IErMin=11 ErrMin= 2.65D-07
 ErrMax= 2.65D-07  0.00D+00 EMaxC= 1.00D-01 BMatC= 1.59D-10 BMatP= 5.09D-10
 IDIUse=1 WtCom= 1.00D+00 WtEn= 0.00D+00
 Coeff-Com:  0.392D-05-0.560D-05-0.529D-04-0.109D-03-0.378D-03-0.104D-02
 Coeff-Com: -0.676D-03 0.316D-02 0.344D-01 0.378D+00 0.587D+00
 Coeff:      0.392D-05-0.560D-05-0.529D-04-0.109D-03-0.378D-03-0.104D-02
 Coeff:     -0.676D-03 0.316D-02 0.344D-01 0.378D+00 0.587D+00
 Gap=     0.247 Goal=   None    Shift=    0.000
 RMSDP=1.84D-08 MaxDP=8.54D-07 DE=-3.38D-10 OVMax= 3.30D-06

 Cycle  12  Pass 1  IDiag  1:
 RMSU=  1.17D-08    CP:  9.82D-01  7.06D-01  8.77D-01  7.80D-01  6.46D-01
                    CP:  8.62D-01  8.48D-01  8.21D-01  7.75D-01  8.65D-01
                    CP:  7.78D-01
 E= -1349.07116204381     Delta-E=       -0.000000000111 Rises=F Damp=F
 DIIS: error= 5.33D-08 at cycle  12 NSaved=  12.
 NSaved=12 IEnMin=12 EnMin= -1349.07116204381     IErMin=12 ErrMin= 5.33D-08
 ErrMax= 5.33D-08  0.00D+00 EMaxC= 1.00D-01 BMatC= 6.99D-12 BMatP= 1.59D-10
 IDIUse=1 WtCom= 1.00D+00 WtEn= 0.00D+00
 Coeff-Com:  0.191D-06 0.136D-05-0.421D-06 0.690D-05-0.780D-04-0.304D-03
 Coeff-Com: -0.174D-02-0.534D-02-0.621D-02 0.934D-01 0.221D+00 0.700D+00
 Coeff:      0.191D-06 0.136D-05-0.421D-06 0.690D-05-0.780D-04-0.304D-03
 Coeff:     -0.174D-02-0.534D-02-0.621D-02 0.934D-01 0.221D+00 0.700D+00
 Gap=     0.247 Goal=   None    Shift=    0.000
 RMSDP=6.78D-09 MaxDP=5.72D-07 DE=-1.11D-10 OVMax= 7.48D-07

 Error on total polarization charges =  0.00792
 SCF Done:  E(RPBE1PBE) =  -1349.07116204     A.U. after   12 cycles
            NFock= 12  Conv=0.68D-08     -V/T= 2.0037
 KE= 1.344118016832D+03 PE=-6.804462321358D+03 EE= 2.304902747327D+03
 Leave Link  502 at Wed Aug 28 19:06:05 2024, MaxMem=  8589934592 cpu:            2212.1 elap:              92.7
 (Enter /share/apps/g16.b01_avx2/g16/l801.exe)
 DoSCS=F DFT=T ScalE2(SS,OS)=  1.000000  1.000000
 Range of M.O.s used for correlation:     1   650
 NBasis=   650 NAE=    77 NBE=    77 NFC=     0 NFV=     0
 NROrb=    650 NOA=    77 NOB=    77 NVA=   573 NVB=   573

 **** Warning!!: The largest alpha MO coefficient is  0.57255199D+02

 Leave Link  801 at Wed Aug 28 19:06:05 2024, MaxMem=  8589934592 cpu:               0.6 elap:               0.0
 (Enter /share/apps/g16.b01_avx2/g16/l1101.exe)
 Using compressed storage, NAtomX=    25.
 Will process     26 centers per pass.
   1 Symmetry operations used in ECPInt.
 ECPInt:  NShTT=   28920 NPrTT=   93120 LenC2=   24817 LenP2D=   56092.
 LDataN:  DoStor=T MaxTD1= 7 Len=  274
 Number of processors reduced to  19 by ecpmxn.
 R6Disp: Adding Grimme-D3 dispersion energy 1st derivatives to the gradient.
 Leave Link 1101 at Wed Aug 28 19:06:07 2024, MaxMem=  8589934592 cpu:              27.8 elap:               1.2
 (Enter /share/apps/g16.b01_avx2/g16/l1102.exe)
 Symmetrizing basis deriv contribution to polar:
 IMax=3 JMax=2 DiffMx= 0.00D+00
 Leave Link 1102 at Wed Aug 28 19:06:07 2024, MaxMem=  8589934592 cpu:               1.4 elap:               0.1
 (Enter /share/apps/g16.b01_avx2/g16/l1110.exe)
 Forming Gx(P) for the SCF density, NAtomX=    25.
 Integral derivatives from FoFJK, PRISM(SPDF).
 Do as many integral derivatives as possible in FoFJK.
 G2DrvN: MDV=    8589932456.
 G2DrvN: will do    26 centers at a time, making    1 passes.
 Calling FoFCou, ICntrl=  3107 FMM=F I1Cent=   0 AccDes= 0.00D+00.
 FoFJK:  IHMeth= 1 ICntrl=    3107 DoSepK=F KAlg= 0 I1Cent=           0 FoldK=F
 IRaf=         0 NMat=       1 IRICut=       1 DoRegI=T DoRafI=F ISym2E= 0 IDoP0=0 IntGTp=1.
 FoFCou: FMM=F IPFlag=           0 FMFlag=      100000 FMFlg1=           0
         NFxFlg=           0 DoJE=F BraDBF=F KetDBF=F FulRan=T
         wScrn=  0.000000 ICntrl=      3107 IOpCl=  0 I1Cent=           0 NGrid=           0
         NMat0=    1 NMatS0=      1 NMatT0=    0 NMatD0=    1 NMtDS0=    0 NMtDT0=    0
 Symmetry not used in FoFCou.
 NEqPCM:  Using equilibrium solvation (IEInf=0, Eps=  78.3553, EpsInf=   1.7778)
 G2PCM: DoFxE=T DoFxN=T DoGrad=T DoDP/DQ/DG/TGxP=FFFF NFrqRd=   0 IEInf=0 SqF1=F DoCFld=F IF1Alg=4.
 GePol: Maximum number of non-zero 1st derivatives   =     205
 End of G2Drv F.D. properties file   721 does not exist.
 End of G2Drv F.D. properties file   722 does not exist.
 End of G2Drv F.D. properties file   788 does not exist.
 Leave Link 1110 at Wed Aug 28 19:09:00 2024, MaxMem=  8589934592 cpu:            4131.7 elap:             172.3
 (Enter /share/apps/g16.b01_avx2/g16/l1002.exe)
 Minotr:  Closed shell wavefunction.
          IDoAtm=1111111111111111111111111
 NEqPCM:  Using equilibrium solvation (IEInf=0, Eps=  78.3553, EpsInf=   1.7778)
          Direct CPHF calculation.
          Differentiating once with respect to nuclear coordinates.
          Requested convergence is 1.0D-08 RMS, and 1.0D-07 maximum.
          Secondary convergence is 1.0D-12 RMS, and 1.0D-12 maximum.
          NewPWx=T KeepS1=F KeepF1=F KeepIn=T MapXYZ=F SortEE=F KeepMc=T.
        17426 words used for storage of precomputed grid.
 Two-electron integrals replicated using symmetry.
          MDV=    8589934592 using IRadAn=   99302.
          Solving linear equations simultaneously, MaxMat=     384.
 FoF2E skips out because all densities are zero.
 CalDSu exits because no D1Ps are significant.
 FoFJK:  IHMeth= 1 ICntrl=       0 DoSepK=F KAlg= 0 I1Cent=           0 FoldK=F
 IRaf= 770000000 NMat=      75 IRICut=     187 DoRegI=T DoRafI=T ISym2E= 2 IDoP0=3 IntGTp=3.
          There are    78 degrees of freedom in the 1st order CPHF.  IDoFFX=6 NUNeed=     0.
     72 vectors produced by pass  0 Test12= 5.66D-14 1.28D-09 XBig12= 1.46D-01 1.95D-01.
 AX will form    72 AO Fock derivatives at one time.
     72 vectors produced by pass  1 Test12= 5.66D-14 1.28D-09 XBig12= 2.81D-02 3.99D-02.
     72 vectors produced by pass  2 Test12= 5.66D-14 1.28D-09 XBig12= 6.70D-04 2.86D-03.
     72 vectors produced by pass  3 Test12= 5.66D-14 1.28D-09 XBig12= 6.13D-06 3.25D-04.
     72 vectors produced by pass  4 Test12= 5.66D-14 1.28D-09 XBig12= 2.85D-08 1.59D-05.
     72 vectors produced by pass  5 Test12= 5.66D-14 1.28D-09 XBig12= 7.58D-11 1.07D-06.
     54 vectors produced by pass  6 Test12= 5.66D-14 1.28D-09 XBig12= 1.91D-13 3.69D-08.
      8 vectors produced by pass  7 Test12= 5.66D-14 1.28D-09 XBig12= 5.31D-16 2.54D-09.
      8 vectors produced by pass  8 Test12= 5.66D-14 1.28D-09 XBig12= 2.06D-15 5.39D-09.
      8 vectors produced by pass  9 Test12= 5.66D-14 1.28D-09 XBig12= 5.10D-15 7.39D-09.
      6 vectors produced by pass 10 Test12= 5.66D-14 1.28D-09 XBig12= 2.09D-15 4.75D-09.
      6 vectors produced by pass 11 Test12= 5.66D-14 1.28D-09 XBig12= 2.79D-15 5.20D-09.
      5 vectors produced by pass 12 Test12= 5.66D-14 1.28D-09 XBig12= 1.84D-15 4.28D-09.
      5 vectors produced by pass 13 Test12= 5.66D-14 1.28D-09 XBig12= 2.89D-15 6.62D-09.
      5 vectors produced by pass 14 Test12= 5.66D-14 1.28D-09 XBig12= 2.35D-15 5.92D-09.
      5 vectors produced by pass 15 Test12= 5.66D-14 1.28D-09 XBig12= 2.40D-15 4.58D-09.
      5 vectors produced by pass 16 Test12= 5.66D-14 1.28D-09 XBig12= 2.69D-15 5.97D-09.
      4 vectors produced by pass 17 Test12= 5.66D-14 1.28D-09 XBig12= 1.13D-15 3.24D-09.
      4 vectors produced by pass 18 Test12= 5.66D-14 1.28D-09 XBig12= 2.08D-15 3.80D-09.
      4 vectors produced by pass 19 Test12= 5.66D-14 1.28D-09 XBig12= 1.73D-15 3.45D-09.
      4 vectors produced by pass 20 Test12= 5.66D-14 1.28D-09 XBig12= 1.72D-15 3.25D-09.
      3 vectors produced by pass 21 Test12= 5.66D-14 1.28D-09 XBig12= 1.97D-15 3.98D-09.
      2 vectors produced by pass 22 Test12= 5.66D-14 1.28D-09 XBig12= 9.87D-16 2.72D-09.
 InvSVY:  IOpt=1 It=  1 EMax= 6.66D-16
 Solved reduced A of dimension   568 with    78 vectors.
 End of Minotr F.D. properties file   721 does not exist.
 End of Minotr F.D. properties file   722 does not exist.
 End of Minotr F.D. properties file   788 does not exist.
 Leave Link 1002 at Wed Aug 28 19:20:08 2024, MaxMem=  8589934592 cpu:           16029.1 elap:             668.3
 (Enter /share/apps/g16.b01_avx2/g16/l601.exe)
 Copying SCF densities to generalized density rwf, IOpCl= 0 IROHF=0.

 **********************************************************************

            Population analysis using the SCF Density.

 **********************************************************************

 Orbital symmetries:
       Occupied  (A) (A) (A) (A) (A) (A) (A) (A) (A) (A) (A) (A)
                 (A) (A) (A) (A) (A) (A) (A) (A) (A) (A) (A) (A)
                 (A) (A) (A) (A) (A) (A) (A) (A) (A) (A) (A) (A)
                 (A) (A) (A) (A) (A) (A) (A) (A) (A) (A) (A) (A)
                 (A) (A) (A) (A) (A) (A) (A) (A) (A) (A) (A) (A)
                 (A) (A) (A) (A) (A) (A) (A) (A) (A) (A) (A) (A)
                 (A) (A) (A) (A) (A)
       Virtual   (A) (A) (A) (A) (A) (A) (A) (A) (A) (A) (A) (A)
                 (A) (A) (A) (A) (A) (A) (A) (A) (A) (A) (A) (A)
                 (A) (A) (A) (A) (A) (A) (A) (A) (A) (A) (A) (A)
                 (A) (A) (A) (A) (A) (A) (A) (A) (A) (A) (A) (A)
                 (A) (A) (A) (A) (A) (A) (A) (A) (A) (A) (A) (A)
                 (A) (A) (A) (A) (A) (A) (A) (A) (A) (A) (A) (A)
                 (A) (A) (A) (A) (A) (A) (A) (A) (A) (A) (A) (A)
                 (A) (A) (A) (A) (A) (A) (A) (A) (A) (A) (A) (A)
                 (A) (A) (A) (A) (A) (A) (A) (A) (A) (A) (A) (A)
                 (A) (A) (A) (A) (A) (A) (A) (A) (A) (A) (A) (A)
                 (A) (A) (A) (A) (A) (A) (A) (A) (A) (A) (A) (A)
                 (A) (A) (A) (A) (A) (A) (A) (A) (A) (A) (A) (A)
                 (A) (A) (A) (A) (A) (A) (A) (A) (A) (A) (A) (A)
                 (A) (A) (A) (A) (A) (A) (A) (A) (A) (A) (A) (A)
                 (A) (A) (A) (A) (A) (A) (A) (A) (A) (A) (A) (A)
                 (A) (A) (A) (A) (A) (A) (A) (A) (A) (A) (A) (A)
                 (A) (A) (A) (A) (A) (A) (A) (A) (A) (A) (A) (A)
                 (A) (A) (A) (A) (A) (A) (A) (A) (A) (A) (A) (A)
                 (A) (A) (A) (A) (A) (A) (A) (A) (A) (A) (A) (A)
                 (A) (A) (A) (A) (A) (A) (A) (A) (A) (A) (A) (A)
                 (A) (A) (A) (A) (A) (A) (A) (A) (A) (A) (A) (A)
                 (A) (A) (A) (A) (A) (A) (A) (A) (A) (A) (A) (A)
                 (A) (A) (A) (A) (A) (A) (A) (A) (A) (A) (A) (A)
                 (A) (A) (A) (A) (A) (A) (A) (A) (A) (A) (A) (A)
                 (A) (A) (A) (A) (A) (A) (A) (A) (A) (A) (A) (A)
                 (A) (A) (A) (A) (A) (A) (A) (A) (A) (A) (A) (A)
                 (A) (A) (A) (A) (A) (A) (A) (A) (A) (A) (A) (A)
                 (A) (A) (A) (A) (A) (A) (A) (A) (A) (A) (A) (A)
                 (A) (A) (A) (A) (A) (A) (A) (A) (A) (A) (A) (A)
                 (A) (A) (A) (A) (A) (A) (A) (A) (A) (A) (A) (A)
                 (A) (A) (A) (A) (A) (A) (A) (A) (A) (A) (A) (A)
                 (A) (A) (A) (A) (A) (A) (A) (A) (A) (A) (A) (A)
                 (A) (A) (A) (A) (A) (A) (A) (A) (A) (A) (A) (A)
                 (A) (A) (A) (A) (A) (A) (A) (A) (A) (A) (A) (A)
                 (A) (A) (A) (A) (A) (A) (A) (A) (A) (A) (A) (A)
                 (A) (A) (A) (A) (A) (A) (A) (A) (A) (A) (A) (A)
                 (A) (A) (A) (A) (A) (A) (A) (A) (A) (A) (A) (A)
                 (A) (A) (A) (A) (A) (A) (A) (A) (A) (A) (A) (A)
                 (A) (A) (A) (A) (A) (A) (A) (A) (A) (A) (A) (A)
                 (A) (A) (A) (A) (A) (A) (A) (A) (A) (A) (A) (A)
                 (A) (A) (A) (A) (A) (A) (A) (A) (A) (A) (A) (A)
                 (A) (A) (A) (A) (A) (A) (A) (A) (A) (A) (A) (A)
                 (A) (A) (A) (A) (A) (A) (A) (A) (A) (A) (A) (A)
                 (A) (A) (A) (A) (A) (A) (A) (A) (A) (A) (A) (A)
                 (A) (A) (A) (A) (A) (A) (A) (A) (A) (A) (A) (A)
                 (A) (A) (A) (A) (A) (A) (A) (A) (A) (A) (A) (A)
                 (A) (A) (A) (A) (A) (A) (A) (A) (A) (A) (A) (A)
                 (A) (A) (A) (A) (A) (A) (A) (A) (A)
 The electronic state is 1-A.
 Alpha  occ. eigenvalues --  -24.82474 -24.82471 -24.81947 -24.81944 -24.81839
 Alpha  occ. eigenvalues --  -24.81807 -24.81723 -24.81325 -19.25692 -19.18178
 Alpha  occ. eigenvalues --  -14.46543 -10.48946 -10.39200 -10.34626 -10.34415
 Alpha  occ. eigenvalues --  -10.34328 -10.34208 -10.34047 -10.31875 -10.26283
 Alpha  occ. eigenvalues --   -1.36267  -1.31141  -1.30500  -1.29886  -1.29107
 Alpha  occ. eigenvalues --   -1.28715  -1.28002  -1.27516  -1.13677  -1.05650
 Alpha  occ. eigenvalues --   -0.98566  -0.93178  -0.82188  -0.81274  -0.78684
 Alpha  occ. eigenvalues --   -0.73087  -0.70713  -0.69918  -0.67577  -0.63789
 Alpha  occ. eigenvalues --   -0.63361  -0.62954  -0.62855  -0.61322  -0.59192
 Alpha  occ. eigenvalues --   -0.57800  -0.57450  -0.56812  -0.55851  -0.55587
 Alpha  occ. eigenvalues --   -0.54272  -0.52974  -0.52206  -0.51215  -0.50511
 Alpha  occ. eigenvalues --   -0.50229  -0.49778  -0.49746  -0.49461  -0.47717
 Alpha  occ. eigenvalues --   -0.47276  -0.47178  -0.47043  -0.46155  -0.45156
 Alpha  occ. eigenvalues --   -0.44832  -0.44269  -0.42537  -0.41988  -0.41368
 Alpha  occ. eigenvalues --   -0.41102  -0.37577  -0.34658  -0.31344  -0.29595
 Alpha  occ. eigenvalues --   -0.27588  -0.27279
 Alpha virt. eigenvalues --   -0.02540  -0.01651  -0.01416   0.03424   0.04284
 Alpha virt. eigenvalues --    0.07177   0.07571   0.09110   0.09460   0.11075
 Alpha virt. eigenvalues --    0.11815   0.12713   0.13501   0.13868   0.15014
 Alpha virt. eigenvalues --    0.16562   0.17342   0.17774   0.18357   0.19243
 Alpha virt. eigenvalues --    0.20175   0.20497   0.21884   0.22179   0.22777
 Alpha virt. eigenvalues --    0.23227   0.23560   0.24059   0.25009   0.25599
 Alpha virt. eigenvalues --    0.26552   0.27013   0.27774   0.28337   0.28715
 Alpha virt. eigenvalues --    0.28920   0.30220   0.31214   0.32050   0.32278
 Alpha virt. eigenvalues --    0.32684   0.34368   0.35258   0.36239   0.37692
 Alpha virt. eigenvalues --    0.37978   0.38829   0.39207   0.39699   0.40432
 Alpha virt. eigenvalues --    0.40711   0.41221   0.41984   0.42441   0.43092
 Alpha virt. eigenvalues --    0.43760   0.43912   0.44751   0.45408   0.45850
 Alpha virt. eigenvalues --    0.46949   0.47867   0.48109   0.48341   0.49562
 Alpha virt. eigenvalues --    0.50557   0.52307   0.52506   0.53219   0.54796
 Alpha virt. eigenvalues --    0.55618   0.56082   0.57502   0.58686   0.58998
 Alpha virt. eigenvalues --    0.61729   0.62067   0.62923   0.63565   0.64806
 Alpha virt. eigenvalues --    0.65273   0.67170   0.67838   0.69091   0.69895
 Alpha virt. eigenvalues --    0.70204   0.71198   0.72376   0.72884   0.73713
 Alpha virt. eigenvalues --    0.74319   0.75055   0.75146   0.76576   0.76989
 Alpha virt. eigenvalues --    0.78537   0.78783   0.80170   0.80728   0.81755
 Alpha virt. eigenvalues --    0.83711   0.83848   0.84150   0.84842   0.85276
 Alpha virt. eigenvalues --    0.86028   0.86739   0.87165   0.87703   0.88706
 Alpha virt. eigenvalues --    0.89587   0.90705   0.91535   0.91935   0.94035
 Alpha virt. eigenvalues --    0.94545   0.94936   0.96511   0.97393   0.99103
 Alpha virt. eigenvalues --    0.99481   0.99973   1.00769   1.01725   1.03460
 Alpha virt. eigenvalues --    1.03897   1.05439   1.06060   1.07320   1.08642
 Alpha virt. eigenvalues --    1.09857   1.10405   1.10962   1.12136   1.12850
 Alpha virt. eigenvalues --    1.14674   1.16055   1.17214   1.17910   1.19945
 Alpha virt. eigenvalues --    1.21626   1.22601   1.24375   1.25943   1.27349
 Alpha virt. eigenvalues --    1.28047   1.30254   1.31123   1.32976   1.33444
 Alpha virt. eigenvalues --    1.34794   1.37514   1.38929   1.40460   1.41306
 Alpha virt. eigenvalues --    1.42885   1.44876   1.45270   1.46493   1.47051
 Alpha virt. eigenvalues --    1.47565   1.48854   1.52259   1.53559   1.54285
 Alpha virt. eigenvalues --    1.54831   1.55231   1.57095   1.59873   1.61108
 Alpha virt. eigenvalues --    1.62191   1.64351   1.66947   1.67598   1.70984
 Alpha virt. eigenvalues --    1.71961   1.72342   1.73160   1.74418   1.75086
 Alpha virt. eigenvalues --    1.78074   1.78372   1.79867   1.80493   1.81692
 Alpha virt. eigenvalues --    1.83129   1.84476   1.85603   1.86583   1.88180
 Alpha virt. eigenvalues --    1.89215   1.90835   1.91559   1.92484   1.94132
 Alpha virt. eigenvalues --    1.95015   1.96064   1.96469   1.97882   1.99174
 Alpha virt. eigenvalues --    2.00174   2.01686   2.03073   2.03746   2.05057
 Alpha virt. eigenvalues --    2.05857   2.06839   2.07268   2.07539   2.08357
 Alpha virt. eigenvalues --    2.08597   2.11536   2.13604   2.15330   2.15610
 Alpha virt. eigenvalues --    2.17664   2.18474   2.19944   2.20472   2.21349
 Alpha virt. eigenvalues --    2.22298   2.22492   2.25730   2.27182   2.28502
 Alpha virt. eigenvalues --    2.29465   2.30828   2.31956   2.32791   2.33455
 Alpha virt. eigenvalues --    2.34840   2.35557   2.37558   2.38628   2.40062
 Alpha virt. eigenvalues --    2.41629   2.43036   2.44301   2.45420   2.46254
 Alpha virt. eigenvalues --    2.47253   2.48048   2.49382   2.49743   2.50628
 Alpha virt. eigenvalues --    2.53015   2.54501   2.57049   2.57093   2.58112
 Alpha virt. eigenvalues --    2.59783   2.60328   2.61080   2.61826   2.62520
 Alpha virt. eigenvalues --    2.63666   2.64032   2.65142   2.67113   2.68661
 Alpha virt. eigenvalues --    2.71074   2.71712   2.73981   2.75701   2.77162
 Alpha virt. eigenvalues --    2.78384   2.79179   2.79991   2.80896   2.82391
 Alpha virt. eigenvalues --    2.83477   2.84379   2.85245   2.87730   2.88241
 Alpha virt. eigenvalues --    2.88910   2.89976   2.90434   2.91082   2.91985
 Alpha virt. eigenvalues --    2.94055   2.94486   2.94536   2.96163   2.97614
 Alpha virt. eigenvalues --    2.97958   2.98397   2.99918   3.00994   3.03597
 Alpha virt. eigenvalues --    3.04388   3.04611   3.06492   3.07625   3.07728
 Alpha virt. eigenvalues --    3.09761   3.10010   3.10923   3.11325   3.11989
 Alpha virt. eigenvalues --    3.13406   3.14829   3.16057   3.16712   3.17929
 Alpha virt. eigenvalues --    3.18529   3.18951   3.19345   3.20069   3.20828
 Alpha virt. eigenvalues --    3.21065   3.22262   3.22518   3.23238   3.24174
 Alpha virt. eigenvalues --    3.25494   3.27050   3.28918   3.29922   3.31116
 Alpha virt. eigenvalues --    3.32011   3.32626   3.36168   3.37368   3.38173
 Alpha virt. eigenvalues --    3.39217   3.42196   3.42661   3.43536   3.44497
 Alpha virt. eigenvalues --    3.44893   3.45263   3.45654   3.46755   3.48445
 Alpha virt. eigenvalues --    3.49693   3.50398   3.50874   3.52384   3.53896
 Alpha virt. eigenvalues --    3.54564   3.55640   3.57780   3.58046   3.60297
 Alpha virt. eigenvalues --    3.63529   3.63742   3.66524   3.68072   3.68806
 Alpha virt. eigenvalues --    3.69873   3.71479   3.71598   3.75760   3.77433
 Alpha virt. eigenvalues --    3.79546   3.81358   3.81729   3.83132   3.85710
 Alpha virt. eigenvalues --    3.87005   3.87990   3.89556   3.91371   3.92896
 Alpha virt. eigenvalues --    3.94370   3.96700   3.97468   3.98588   4.00776
 Alpha virt. eigenvalues --    4.03458   4.04598   4.06487   4.06518   4.07681
 Alpha virt. eigenvalues --    4.09370   4.11830   4.12480   4.13129   4.14138
 Alpha virt. eigenvalues --    4.15068   4.16046   4.16759   4.18159   4.19421
 Alpha virt. eigenvalues --    4.21571   4.21956   4.22636   4.23684   4.28638
 Alpha virt. eigenvalues --    4.31182   4.32186   4.35995   4.38544   4.39271
 Alpha virt. eigenvalues --    4.41865   4.44321   4.48999   4.52056   4.53075
 Alpha virt. eigenvalues --    4.58716   4.60823   4.66460   4.71120   4.71490
 Alpha virt. eigenvalues --    4.77273   4.78886   4.83750   4.84430   4.86214
 Alpha virt. eigenvalues --    4.87290   4.89624   4.91896   4.92323   5.00044
 Alpha virt. eigenvalues --    5.00917   5.07334   5.09702   5.13620   5.14597
 Alpha virt. eigenvalues --    5.19936   5.23203   5.24753   5.29786   5.33667
 Alpha virt. eigenvalues --    5.36970   5.38025   5.40692   5.41636   5.44787
 Alpha virt. eigenvalues --    5.45793   5.49855   5.54543   5.56545   5.59191
 Alpha virt. eigenvalues --    5.65597   5.69554   5.77269   5.83694   5.86683
 Alpha virt. eigenvalues --    5.92710   6.07663   6.18830   6.31576   6.37151
 Alpha virt. eigenvalues --    6.39432   6.46180   6.49392   6.57963   6.72251
 Alpha virt. eigenvalues --    6.75894   6.79711   6.83605   6.84114   6.84246
 Alpha virt. eigenvalues --    6.84457   6.84584   6.84844   6.85151   6.85294
 Alpha virt. eigenvalues --    6.85393   6.85593   6.85743   6.86160   6.86220
 Alpha virt. eigenvalues --    6.86694   6.86863   6.86963   6.87084   6.88462
 Alpha virt. eigenvalues --    6.91350   6.93620   6.93829   6.95918   6.96400
 Alpha virt. eigenvalues --    6.97467   6.98835   7.00663   7.01721   7.02562
 Alpha virt. eigenvalues --    7.03245   7.04669   7.06606   7.06749   7.08879
 Alpha virt. eigenvalues --    7.09789   7.12276   7.12458   7.14489   7.16625
 Alpha virt. eigenvalues --    7.17059   7.20371   7.23693   7.26722   7.29060
 Alpha virt. eigenvalues --    7.29429   7.30234   7.32962   7.34377   7.36214
 Alpha virt. eigenvalues --    7.36691   7.37996   7.41330   7.43614   7.46694
 Alpha virt. eigenvalues --    7.50530   7.52871   7.57896   7.58559   7.66768
 Alpha virt. eigenvalues --    7.67505   7.75366   8.08879   8.30031   8.31041
 Alpha virt. eigenvalues --    8.31151   8.31895   8.33185   8.35656   8.37631
 Alpha virt. eigenvalues --    8.42576   8.42856   8.45241   8.46811   8.53650
 Alpha virt. eigenvalues --    8.54069   8.56332   8.58608   8.69240   8.69883
 Alpha virt. eigenvalues --    8.72637   8.76129   8.77059   8.78981   8.79065
 Alpha virt. eigenvalues --    8.79873   8.80673   8.86802   8.87244   8.89108
 Alpha virt. eigenvalues --    8.92720   8.93226   8.94477   9.00035   9.01685
 Alpha virt. eigenvalues --    9.02028   9.03962   9.07088   9.09401   9.09709
 Alpha virt. eigenvalues --    9.10412   9.12592   9.39978  22.27262  22.44221
 Alpha virt. eigenvalues --   22.77044  22.97141  22.97928  23.10175  23.13414
 Alpha virt. eigenvalues --   23.14296  23.75034  32.21309  44.21170  44.59076
 Alpha virt. eigenvalues --   57.19744  57.33150  57.34813  57.39988  57.42332
 Alpha virt. eigenvalues --   57.46141  57.53974  57.64963
          Condensed to atoms (all electrons):
               1          2          3          4          5          6
     1  H    0.416416   0.003977  -0.008223   0.347336  -0.019888  -0.018527
     2  O    0.003977   7.951907   0.674935  -0.090064   0.003720  -0.007218
     3  C   -0.008223   0.674935   4.769910   0.116570  -0.000420  -0.022999
     4  N    0.347336  -0.090064   0.116570   6.345851   0.342936   0.278614
     5  H   -0.019888   0.003720  -0.000420   0.342936   0.405961  -0.020753
     6  C   -0.018527  -0.007218  -0.022999   0.278614  -0.020753   4.890414
     7  H    0.006040   0.000395  -0.006201  -0.025457  -0.006127   0.408897
     8  H   -0.002485   0.017186   0.001734  -0.042987   0.006571   0.407039
     9  H   -0.008381  -0.000339   0.003736  -0.022274  -0.002831   0.402796
    10  C    0.001841  -0.038283   0.380725   0.009800  -0.005325  -0.003257
    11  O   -0.001459  -0.087447   0.208743  -0.041196   0.003194   0.003360
    12  C   -0.004239  -0.013651  -0.133875   0.026123  -0.000932  -0.000749
    13  C   -0.000874   0.020985   0.010307  -0.014673   0.001626   0.000691
    14  C    0.000607   0.020764  -0.028895   0.004853  -0.000306  -0.000139
    15  C   -0.000959  -0.002021   0.001455  -0.000119   0.000046   0.000100
    16  C    0.000019  -0.003987  -0.000518   0.000241  -0.000026  -0.000016
    17  C    0.000021  -0.000104   0.000583  -0.000126   0.000008  -0.000000
    18  F    0.011259  -0.000361  -0.000219  -0.003034   0.000160  -0.000126
    19  F   -0.000002  -0.002117   0.004602  -0.000046  -0.000001   0.000008
    20  F   -0.000019  -0.000001   0.000033  -0.000001  -0.000000   0.000000
    21  F   -0.000000  -0.000000   0.000017  -0.000000   0.000000   0.000000
    22  F    0.000000  -0.000000  -0.000001  -0.000000   0.000000  -0.000000
    23  F   -0.000120  -0.001779  -0.067715   0.001404   0.000100  -0.000229
    24  F   -0.000156   0.001489  -0.043517  -0.006589   0.004205   0.000513
    25  F   -0.000068   0.000065  -0.069368   0.000978   0.000016   0.000732
               7          8          9         10         11         12
     1  H    0.006040  -0.002485  -0.008381   0.001841  -0.001459  -0.004239
     2  O    0.000395   0.017186  -0.000339  -0.038283  -0.087447  -0.013651
     3  C   -0.006201   0.001734   0.003736   0.380725   0.208743  -0.133875
     4  N   -0.025457  -0.042987  -0.022274   0.009800  -0.041196   0.026123
     5  H   -0.006127   0.006571  -0.002831  -0.005325   0.003194  -0.000932
     6  C    0.408897   0.407039   0.402796  -0.003257   0.003360  -0.000749
     7  H    0.488937  -0.018972  -0.019838   0.002984  -0.000070   0.000067
     8  H   -0.018972   0.494789  -0.021539  -0.003813   0.000817  -0.000723
     9  H   -0.019838  -0.021539   0.499005   0.000514  -0.000078   0.000117
    10  C    0.002984  -0.003813   0.000514   4.152237  -0.021682   0.004349
    11  O   -0.000070   0.000817  -0.000078  -0.021682   8.028668   0.253099
    12  C    0.000067  -0.000723   0.000117   0.004349   0.253099   5.403076
    13  C    0.000018   0.000363  -0.000112  -0.000306  -0.021657   0.194247
    14  C   -0.000001  -0.000124   0.000006   0.001034  -0.018576   0.263775
    15  C   -0.000001   0.000004  -0.000006  -0.000305   0.006553  -0.007331
    16  C   -0.000001  -0.000002   0.000001   0.000867   0.008705  -0.037004
    17  C    0.000000   0.000006  -0.000001  -0.000063   0.001793   0.007331
    18  F   -0.000010   0.000012   0.000015  -0.000063  -0.001133  -0.039539
    19  F    0.000000   0.000000   0.000000   0.002472   0.001735  -0.063859
    20  F   -0.000000  -0.000000   0.000000   0.000000  -0.000052   0.009689
    21  F    0.000000  -0.000000  -0.000000  -0.000004  -0.000061   0.009802
    22  F   -0.000000  -0.000000   0.000000   0.000000  -0.000001  -0.001029
    23  F    0.000047  -0.000008   0.000006   0.370195  -0.000572  -0.001473
    24  F    0.000189   0.000018   0.000013   0.354558  -0.010408   0.000669
    25  F    0.000676  -0.001033   0.000781   0.360914   0.001700   0.000093
              13         14         15         16         17         18
     1  H   -0.000874   0.000607  -0.000959   0.000019   0.000021   0.011259
     2  O    0.020985   0.020764  -0.002021  -0.003987  -0.000104  -0.000361
     3  C    0.010307  -0.028895   0.001455  -0.000518   0.000583  -0.000219
     4  N   -0.014673   0.004853  -0.000119   0.000241  -0.000126  -0.003034
     5  H    0.001626  -0.000306   0.000046  -0.000026   0.000008   0.000160
     6  C    0.000691  -0.000139   0.000100  -0.000016  -0.000000  -0.000126
     7  H    0.000018  -0.000001  -0.000001  -0.000001   0.000000  -0.000010
     8  H    0.000363  -0.000124   0.000004  -0.000002   0.000006   0.000012
     9  H   -0.000112   0.000006  -0.000006   0.000001  -0.000001   0.000015
    10  C   -0.000306   0.001034  -0.000305   0.000867  -0.000063  -0.000063
    11  O   -0.021657  -0.018576   0.006553   0.008705   0.001793  -0.001133
    12  C    0.194247   0.263775  -0.007331  -0.037004   0.007331  -0.039539
    13  C    5.186726   0.010641   0.316649  -0.008280  -0.069020   0.246585
    14  C    0.010641   5.038727   0.004336   0.355057  -0.083308   0.005734
    15  C    0.316649   0.004336   4.963650  -0.053668   0.399515  -0.029840
    16  C   -0.008280   0.355057  -0.053668   4.977388   0.395419  -0.000446
    17  C   -0.069020  -0.083308   0.399515   0.395419   4.973577   0.006679
    18  F    0.246585   0.005734  -0.029840  -0.000446   0.006679   8.989327
    19  F    0.005164   0.291112  -0.001044  -0.036706   0.007278  -0.000030
    20  F   -0.054413  -0.001127   0.295314   0.006965  -0.044275   0.000607
    21  F   -0.000814  -0.050746   0.007215   0.289795  -0.044349   0.000000
    22  F    0.008903   0.008020  -0.045476  -0.044443   0.285890  -0.000027
    23  F   -0.000115   0.002285   0.000009   0.000460  -0.000010   0.000000
    24  F   -0.000251  -0.000120  -0.000011  -0.000001  -0.000000   0.000002
    25  F   -0.000079   0.000056  -0.000000   0.000004  -0.000000   0.000000
              19         20         21         22         23         24
     1  H   -0.000002  -0.000019  -0.000000   0.000000  -0.000120  -0.000156
     2  O   -0.002117  -0.000001  -0.000000  -0.000000  -0.001779   0.001489
     3  C    0.004602   0.000033   0.000017  -0.000001  -0.067715  -0.043517
     4  N   -0.000046  -0.000001  -0.000000  -0.000000   0.001404  -0.006589
     5  H   -0.000001  -0.000000   0.000000   0.000000   0.000100   0.004205
     6  C    0.000008   0.000000   0.000000  -0.000000  -0.000229   0.000513
     7  H    0.000000  -0.000000   0.000000  -0.000000   0.000047   0.000189
     8  H    0.000000  -0.000000  -0.000000  -0.000000  -0.000008   0.000018
     9  H    0.000000   0.000000  -0.000000   0.000000   0.000006   0.000013
    10  C    0.002472   0.000000  -0.000004   0.000000   0.370195   0.354558
    11  O    0.001735  -0.000052  -0.000061  -0.000001  -0.000572  -0.010408
    12  C   -0.063859   0.009689   0.009802  -0.001029  -0.001473   0.000669
    13  C    0.005164  -0.054413  -0.000814   0.008903  -0.000115  -0.000251
    14  C    0.291112  -0.001127  -0.050746   0.008020   0.002285  -0.000120
    15  C   -0.001044   0.295314   0.007215  -0.045476   0.000009  -0.000011
    16  C   -0.036706   0.006965   0.289795  -0.044443   0.000460  -0.000001
    17  C    0.007278  -0.044275  -0.044349   0.285890  -0.000010  -0.000000
    18  F   -0.000030   0.000607   0.000000  -0.000027   0.000000   0.000002
    19  F    8.964215   0.000000   0.000647  -0.000027  -0.000718  -0.000026
    20  F    0.000000   8.957261  -0.000028   0.001145   0.000000  -0.000000
    21  F    0.000647  -0.000028   8.959139   0.001093  -0.000000   0.000000
    22  F   -0.000027   0.001145   0.001093   8.954928   0.000000   0.000000
    23  F   -0.000718   0.000000  -0.000000   0.000000   8.946006  -0.047118
    24  F   -0.000026  -0.000000   0.000000   0.000000  -0.047118   8.946282
    25  F    0.000001   0.000000  -0.000000  -0.000000  -0.047844  -0.046911
              25
     1  H   -0.000068
     2  O    0.000065
     3  C   -0.069368
     4  N    0.000978
     5  H    0.000016
     6  C    0.000732
     7  H    0.000676
     8  H   -0.001033
     9  H    0.000781
    10  C    0.360914
    11  O    0.001700
    12  C    0.000093
    13  C   -0.000079
    14  C    0.000056
    15  C   -0.000000
    16  C    0.000004
    17  C   -0.000000
    18  F    0.000000
    19  F    0.000001
    20  F    0.000000
    21  F   -0.000000
    22  F   -0.000000
    23  F   -0.047844
    24  F   -0.046911
    25  F    8.954733
 Mulliken charges:
               1
     1  H    0.277882
     2  O   -0.448049
     3  C    0.208602
     4  N   -0.228141
     5  H    0.288066
     6  C   -0.319152
     7  H    0.168426
     8  H    0.163145
     9  H    0.168409
    10  C    0.430610
    11  O   -0.313978
    12  C    0.131967
    13  C    0.167688
    14  C    0.176335
    15  C    0.145937
    16  C    0.150177
    17  C    0.163156
    18  F   -0.185553
    19  F   -0.172659
    20  F   -0.171098
    21  F   -0.171705
    22  F   -0.168976
    23  F   -0.152815
    24  F   -0.152830
    25  F   -0.155446
 Sum of Mulliken charges =  -0.00000
 Mulliken charges with hydrogens summed into heavy atoms:
               1
     2  O   -0.448049
     3  C    0.208602
     4  N    0.337807
     6  C    0.180829
    10  C    0.430610
    11  O   -0.313978
    12  C    0.131967
    13  C    0.167688
    14  C    0.176335
    15  C    0.145937
    16  C    0.150177
    17  C    0.163156
    18  F   -0.185553
    19  F   -0.172659
    20  F   -0.171098
    21  F   -0.171705
    22  F   -0.168976
    23  F   -0.152815
    24  F   -0.152830
    25  F   -0.155446
 APT charges:
               1
     1  H    0.266372
     2  O   -0.392575
     3  C    0.014975
     4  N   -0.515694
     5  H    0.625983
     6  C   -1.368211
     7  H    0.643040
     8  H    0.223457
     9  H    0.702658
    10  C   -0.174629
    11  O   -0.262911
    12  C   -0.207401
    13  C   -0.145070
    14  C   -0.170122
    15  C    0.001927
    16  C   -0.019185
    17  C    0.073043
    18  F   -0.046381
    19  F   -0.049091
    20  F    0.165791
    21  F    0.137716
    22  F    0.258783
    23  F   -0.031876
    24  F    0.045229
    25  F    0.224172
 Sum of APT charges =  -0.00000
 APT charges with hydrogens summed into heavy atoms:
               1
     2  O   -0.392575
     3  C    0.014975
     4  N    0.376660
     6  C    0.200944
    10  C   -0.174629
    11  O   -0.262911
    12  C   -0.207401
    13  C   -0.145070
    14  C   -0.170122
    15  C    0.001927
    16  C   -0.019185
    17  C    0.073043
    18  F   -0.046381
    19  F   -0.049091
    20  F    0.165791
    21  F    0.137716
    22  F    0.258783
    23  F   -0.031876
    24  F    0.045229
    25  F    0.224172
 Electronic spatial extent (au):  <R**2>=           5580.8751
 Charge=             -0.0000 electrons
 Dipole moment (field-independent basis, Debye):
    X=             -4.0297    Y=              6.6294    Z=             -1.3495  Tot=              7.8746
 Quadrupole moment (field-independent basis, Debye-Ang):
   XX=           -103.6751   YY=           -103.2959   ZZ=           -110.6672
   XY=            -16.2834   XZ=             -1.4553   YZ=              3.5750
 Traceless Quadrupole moment (field-independent basis, Debye-Ang):
   XX=              2.2043   YY=              2.5834   ZZ=             -4.7878
   XY=            -16.2834   XZ=             -1.4553   YZ=              3.5750
 Octapole moment (field-independent basis, Debye-Ang**2):
  XXX=            -80.7264  YYY=             20.1630  ZZZ=            -10.3532  XYY=            -42.9800
  XXY=             38.1088  XXZ=             -3.5639  XZZ=              3.7034  YZZ=              1.8197
  YYZ=              3.4132  XYZ=             -3.0380
 Hexadecapole moment (field-independent basis, Debye-Ang**3):
 XXXX=          -4396.5156 YYYY=          -1354.9473 ZZZZ=           -398.1100 XXXY=            -90.5835
 XXXZ=            -14.8770 YYYX=            -36.2195 YYYZ=              8.6412 ZZZX=             34.4195
 ZZZY=            -10.3657 XXYY=           -915.3076 XXZZ=           -769.8223 YYZZ=           -281.6460
 XXYZ=             21.9981 YYXZ=             -3.1437 ZZXY=             -3.4849
 N-N= 1.806370395156D+03 E-N=-6.804462322184D+03  KE= 1.344118016832D+03
  Exact polarizability:   0.000   0.000   0.000   0.000   0.000   0.000
 Approx polarizability: 206.129  -5.303 202.009  14.483 -13.670 136.970
 No NMR shielding tensors so no spin-rotation constants.
 Leave Link  601 at Wed Aug 28 19:20:09 2024, MaxMem=  8589934592 cpu:               7.9 elap:               0.4
 (Enter /share/apps/g16.b01_avx2/g16/l701.exe)
 ... and contract with generalized density number  0.
 Compute integral second derivatives.
 R6Disp: Adding Grimme-D3 dispersion energy 2nd derivatives to the Hessian.
   1 Symmetry operations used in ECPInt.
 ECPInt:  NShTT=   28920 NPrTT=   93120 LenC2=   24817 LenP2D=   56092.
 LDataN:  DoStor=T MaxTD1= 8 Len=  415
 D2PCM: PCM CHGder 2nd derivatives, FixD1E=F FixD2E=F DoIter=F DoCFld=F I1PDM=0
[...]
 0.00894012,0.01464122,0.73256057,-0.00008489,0.00005577,-0.00003273,0.
 00019136,0.00008805,-0.00055037,-0.00091225,-0.00016144,0.00158481,0.0
 0028954,-0.00019079,-0.00008428,-0.00000459,-0.00005285,-0.00003473,0.
 00004192,-0.00001279,0.00010146,0.00000821,0.00001039,-0.00000134,-0.0
 0008287,0.00000673,0.00004605,-0.00000049,-0.00003544,-0.00004605,-0.0
 0027027,-0.00030644,-0.00042617,0.00338177,0.00041416,-0.00251840,-0.0
 0586638,0.01050624,0.00429788,-0.02042094,0.00034878,-0.00819090,0.005
 97451,-0.01594057,0.00400206,-0.05581492,0.07517490,-0.08968999,-0.025
 34364,-0.03126182,-0.06944204,0.21864703,-0.03472756,0.22186459,0.0015
 1821,-0.00025904,0.00071151,0.00081726,-0.00025312,0.00018353,-0.00230
 726,0.00154435,0.00061807,-0.00065678,-0.00062100,-0.00030099,-0.00005
 555,-0.00037523,0.00041550,0.00056493,-0.00042619,0.00043706,-0.000438
 45,-0.00000717,0.00002963,-0.00061639,-0.00005834,-0.00068656,-0.00020
 973,0.00000819,-0.00008179,-0.00018047,-0.00014513,-0.00029742,0.00606
 494,-0.00137405,0.00407211,0.00202978,0.00120930,-0.00267761,-0.169168
 21,0.12371761,-0.06343351,-0.00428094,-0.00381478,-0.00347025,-0.03183
 088,0.04905038,-0.01988748,0.00366266,-0.00078950,0.00272521,0.0015274
 2,-0.00826263,-0.00058740,0.19631188,-0.00128273,-0.00064640,-0.000035
 00,-0.00124646,0.00007248,0.00040840,0.00324481,-0.00030410,-0.0016693
 5,-0.00084582,0.00071814,0.00015203,0.00000121,0.00025094,0.00000580,-
 0.00049101,0.00010127,-0.00039544,0.00025268,0.00002909,-0.00001494,-0
 .00010788,-0.00011233,0.00066532,0.00014432,0.00005738,0.00011543,0.00
 063842,0.00051056,0.00059896,-0.00178566,0.00327418,0.00044998,0.04116
 930,-0.04488911,0.02038996,0.12400036,-0.22983929,0.06402824,-0.006355
 85,0.00222084,-0.00291417,0.00646230,-0.00999649,0.00369432,-0.0015050
 5,0.00420433,-0.00101027,-0.00485377,-0.00319493,-0.00151386,-0.164998
 54,0.27787774,0.00053331,0.00010263,0.00001257,-0.00010422,-0.00006281
 ,-0.00031172,-0.00009122,0.00013183,0.00135875,0.00020066,-0.00019332,
 -0.00026385,-0.00001226,-0.00009678,0.00004839,-0.00004588,0.00021530,
 -0.00042890,0.00016963,0.00001029,0.00007563,0.00078229,0.00001933,-0.
 00015588,-0.00005747,-0.00003044,-0.00001968,-0.00008320,-0.00012229,-
 0.00042724,0.00530378,-0.00131751,-0.00362334,-0.00635378,0.00301308,0
 .00489077,-0.06403058,0.06547615,-0.06704014,-0.00351582,-0.00132172,0
 .00348948,-0.01706697,0.02156322,0.00004407,0.00294540,-0.00074906,-0.
 00161887,-0.00093635,-0.00299572,0.00441145,0.08254853,-0.08593145,0.0
 6313144,-0.00008696,0.00006325,0.00002682,-0.00214917,0.00248892,-0.00
 081151,0.00039807,-0.00247063,0.00238422,-0.00027034,0.00064922,-0.000
 20660,0.00001138,0.00003312,0.00000222,-0.00006182,-0.00004699,-0.0001
 3155,0.00003026,-0.00002937,-0.00000899,-0.00000225,0.00000865,0.00003
 231,0.00001533,0.00001530,0.00002732,0.00065390,-0.00043109,0.00013894
 ,0.00433512,0.00279772,0.00392792,0.01031210,0.01906873,0.00027735,-0.
 00615723,-0.00062401,-0.00487476,-0.09428087,-0.08368161,-0.01978705,0
 .00271285,0.00079257,0.00221820,-0.01067619,-0.05112560,-0.00554698,-0
 .00277583,0.00744618,-0.00370475,0.00117586,0.00089055,0.00018915,0.09
 716362,-0.00036071,0.00016802,-0.00010320,-0.00059041,0.00128375,-0.00
 251988,-0.00234263,-0.00218394,0.00526672,0.00044973,-0.00008028,-0.00
 017681,-0.00000572,-0.00011024,-0.00006486,-0.00005226,-0.00012655,0.0
 0008412,0.00003557,0.00001004,-0.00002120,-0.00005374,0.00011177,0.000
 18416,0.00008292,-0.00004710,-0.00007381,-0.00012421,-0.00126368,-0.00
 087801,0.00427115,0.00768320,-0.00063385,-0.02005649,-0.05599210,-0.00
 643861,0.00188391,0.00475991,0.00053056,-0.08193156,-0.33645515,-0.019
 54440,0.00178227,0.00516268,0.00033508,-0.00978678,-0.03843951,-0.0017
 5412,0.00421966,0.00311760,0.00183561,0.00176703,-0.00546623,0.0011421
 5,0.10928140,0.41730155,0.00003763,-0.00001934,-0.00001762,0.00025543,
 -0.00092655,-0.00027410,0.00041941,-0.00006852,0.00058767,0.00020201,-
 0.00018229,0.00005271,-0.00000882,-0.00005433,-0.00000681,0.00004112,-
 0.00001222,0.00005566,-0.00000936,0.00001332,-0.00000086,-0.00001815,-
 0.00000502,-0.00001137,-0.00000712,-0.00000881,-0.00002568,0.00008030,
 -0.00020491,-0.00027782,0.00502727,0.00052784,-0.00339215,0.00147279,0
 .01221128,0.00733567,-0.00509113,-0.00031015,0.00276972,-0.01986205,-0
 .01957840,-0.04507938,0.00246465,-0.00011049,-0.00177328,-0.00787539,-
 0.01946823,0.00640339,-0.00343759,0.00348226,0.00294429,0.00022146,0.0
 0073487,0.00064209,0.02374456,0.02636150,0.03278260,0.00012732,-0.0000
 8982,0.00005859,-0.00049763,-0.00018317,0.00077832,0.00218333,-0.00004
 969,-0.00216969,-0.00030535,0.00027152,0.00008228,0.00000759,0.0000608
 4,0.00003569,-0.00002323,0.00006225,-0.00009282,0.00000458,-0.00000953
 ,0.00000307,0.00004535,-0.00003804,-0.00008110,-0.00002561,0.00004071,
 0.00005149,0.00036767,0.00048205,0.00049764,-0.00343894,-0.00301542,0.
 00018982,-0.00273995,0.00662052,-0.00329371,-0.00999633,-0.05011595,-0
 .00421345,0.00238577,0.00116784,0.00212354,-0.09494153,-0.08601688,-0.
 01957487,-0.00641681,-0.00046779,-0.00457022,0.00894567,0.01811624,-0.
 00096338,0.00334213,0.00040435,0.00362129,-0.00072212,-0.00309457,-0.0
 0054745,0.09488260,0.00030305,-0.00016566,0.00012420,-0.00124229,-0.00
 028847,0.00110616,0.00400249,0.00013758,-0.00300198,-0.00068743,0.0005
 4283,0.00015674,0.00001130,0.00013113,0.00007832,-0.00003368,0.0001312
 1,-0.00018921,-0.00001340,-0.00002221,0.00000635,0.00010622,-0.0001242
 9,-0.00018745,-0.00007205,0.00007766,0.00010205,0.00086184,0.00086472,
 0.00088638,-0.00557625,-0.00249476,0.00036051,0.00420031,0.00132189,0.
 00194395,-0.00817861,-0.03516447,-0.00032129,0.00096251,0.00578726,-0.
 00025828,-0.08583842,-0.33750661,-0.01574503,0.00175379,0.00538970,0.0
 0056653,-0.02479214,-0.05612818,-0.00614095,-0.00220113,0.01038871,-0.
 00202613,-0.00293984,-0.00939651,-0.00070256,0.11395178,0.41544013,0.0
 0003784,-0.00003508,0.00001504,0.00005781,-0.00007668,0.00025221,0.000
 43064,0.00003865,-0.00081952,-0.00006982,0.00005606,0.00002629,0.00000
 043,0.00001880,0.00000793,-0.00000003,0.00004076,-0.00001480,-0.000006
 79,-0.00000234,0.00000196,0.00000427,-0.00003530,-0.00002640,-0.000019
 89,0.00000646,0.00001348,0.00008776,0.00013356,0.00017536,-0.00117425,
 -0.00113341,0.00065564,-0.00326292,0.00308487,0.00300823,-0.00690031,-
 0.01821694,0.00640273,0.00195586,-0.00015364,-0.00193087,-0.01950369,-
 0.01581854,-0.04234365,-0.00469701,-0.00035889,0.00246774,0.00201423,0
 .01213336,0.00816446,0.00374978,-0.00081618,-0.00386473,-0.00044532,-0
 .00066182,0.00074990,0.02325988,0.02143177,0.03008013,0.00027622,-0.00
 015534,0.00009490,-0.00090438,-0.00030746,0.00104108,0.00350407,0.0005
 4933,-0.00274402,-0.00062988,0.00038078,0.00019720,0.00000375,0.000120
 40,0.00007553,-0.00004903,0.00009780,-0.00017146,-0.00001860,-0.000018
 43,0.00000775,0.00008368,-0.00008023,-0.00014013,-0.00004048,0.0000686
 2,0.00008764,0.00069778,0.00071105,0.00061012,-0.00577648,0.00069058,-
 0.00040472,0.00154226,-0.00769638,-0.00115045,0.00303492,-0.00094330,0
 .00266847,-0.03042852,0.04812801,-0.01938689,-0.00437045,-0.00398833,-
 0.00335316,-0.17294408,0.12907052,-0.06606381,-0.00055820,0.00103002,-
 0.00362981,-0.00355185,0.00466114,-0.00218472,0.00322268,-0.00210921,0
 .00387175,0.00125554,0.00182987,0.00012356,0.19869247,-0.00031034,0.00
 011427,-0.00010343,0.00084123,0.00026958,-0.00079243,-0.00273806,-0.00
 036687,0.00195235,0.00048014,-0.00031584,-0.00011031,-0.00000555,-0.00
 008804,-0.00006539,-0.00001661,-0.00009154,0.00011883,0.00002963,0.000
 01842,-0.00000827,-0.00008706,0.00008712,0.00017841,0.00006277,-0.0000
 5334,-0.00006736,-0.00060121,-0.00062275,-0.00055983,0.00362469,0.0012
 8329,-0.00010595,-0.00479419,-0.00318182,-0.00140504,-0.00100152,0.004
 07676,-0.00104956,0.00568176,-0.00923437,0.00359515,-0.00627273,0.0025
 7327,-0.00261061,0.12896683,-0.23376009,0.06681568,0.04393310,-0.04408
 994,0.02169148,0.00464014,-0.00562002,0.00234222,0.00046875,0.01066375
 ,-0.00074691,0.00072159,-0.00561359,0.00076103,-0.17149329,0.27819429,
 0.00013055,-0.00006730,0.00004883,-0.00057203,-0.00006329,0.00044411,0
 .00153420,0.00004978,-0.00120682,-0.00028862,0.00022624,0.00006726,0.0
 0000042,0.00005502,0.00003564,-0.00002402,0.00004983,-0.00007600,-0.00
 000450,-0.00001088,0.00000434,0.00002641,-0.00002653,-0.00006724,-0.00
 002246,0.00003123,0.00004567,0.00034494,0.00032599,0.00032410,-0.00269
 777,0.00029727,0.00033514,-0.00110698,-0.00269233,0.00426558,0.0024869
 2,-0.00092602,-0.00174009,-0.01644573,0.02127024,-0.00010451,-0.003124
 65,-0.00164449,0.00321555,-0.06613198,0.06654484,-0.06756830,-0.006459
 58,0.00400183,0.00518003,-0.00218700,0.00238744,-0.00007484,0.00369906
 ,-0.00167416,-0.00381752,0.00019291,0.00119164,0.00065583,0.08531177,-
 0.08832507,0.06328938,0.00034433,-0.00021364,0.00014233,-0.00129596,-0
 .00059917,0.00153832,0.00500950,0.00108579,-0.00359145,-0.00090303,0.0
 0061422,0.00021819,0.00001949,0.00018658,0.00009752,-0.00008275,0.0001
 5470,-0.00024944,-0.00000122,-0.00002561,0.00001279,0.00006624,-0.0001
 2541,-0.00016265,-0.00006615,0.00010237,0.00013415,0.00110199,0.001110
 32,0.00102742,-0.00881460,-0.00323017,-0.00162838,0.00242667,0.0006195
 4,0.00236880,0.00534769,0.00090188,0.00062047,0.00423244,0.00325204,-0
 .00070620,-0.04715069,-0.01677216,-0.02220025,-0.03638804,-0.00490554,
 -0.01846119,-0.30986376,-0.05598032,-0.11130123,-0.00422138,0.00247470
 ,-0.00212642,-0.00219895,-0.00383115,-0.00095422,0.00617629,0.00479372
 ,0.00454533,0.00785710,-0.00293083,0.00578688,0.37989717,0.00002025,-0
 .00005607,0.00002499,-0.00028731,-0.00008197,0.00035845,0.00121468,0.0
 0016754,-0.00086470,-0.00020185,0.00016089,0.00005114,0.00000490,0.000
 04945,0.00001629,-0.00003496,0.00004374,-0.00006110,0.00000795,-0.0000
 0645,0.00000132,0.00001245,-0.00003077,-0.00001652,-0.00001164,0.00002
 238,0.00003332,0.00026238,0.00023170,0.00023563,-0.00217922,-0.0005387
 7,-0.00026952,0.00024836,0.00297152,-0.00016585,-0.00206499,-0.0080392
 7,0.00003354,0.00632155,-0.00558361,0.00323698,0.02562663,0.00928965,0
 .01074600,-0.04717940,-0.00529360,-0.01886407,-0.05597550,-0.08673056,
 -0.02009632,0.00162501,0.00077682,0.00065382,-0.00297502,-0.00184667,-
 0.00117044,0.00156059,0.00741259,-0.00028426,0.00007613,0.00520849,-0.
 00068354,0.07428324,0.08207910,0.00014140,-0.00008562,0.00005475,-0.00
 035128,-0.00023371,0.00074047,0.00190319,0.00047682,-0.00182830,-0.000
 38566,0.00024263,0.00008903,0.00000288,0.00007988,0.00004541,-0.000045
 72,0.00005375,-0.00011074,-0.00000294,-0.00001065,0.00000505,0.0000377
 3,-0.00003534,-0.00006394,-0.00001638,0.00004125,0.00005713,0.00041843
 ,0.00044034,0.00046278,-0.00421562,-0.00127771,0.00045390,0.00246304,-
 0.00017024,-0.00164339,0.00083957,0.00131743,0.00489504,-0.00069262,0.
 00199102,0.00397225,-0.02551737,-0.00714093,-0.00157017,-0.01570607,-0
 .00123071,0.00206432,-0.11119790,-0.02009034,-0.08181899,-0.00218202,0
 .00102208,-0.00046943,-0.00087040,-0.00152677,0.00014030,0.00488895,0.
 00118343,-0.00361063,0.00553523,-0.00188930,-0.00303481,0.14555791,0.0
 2724040,0.08145251,0.00024368,-0.00022370,-0.00024194,-0.00032311,-0.0
 0069686,-0.00018554,0.00804584,-0.00895719,-0.00319167,-0.00001473,-0.
 00176440,-0.00049964,-0.00003528,-0.00077876,-0.00013894,0.00055480,-0
 .00057184,0.00016976,-0.00008350,-0.00003268,0.00000005,-0.00002181,0.
 00006964,0.00001220,-0.00007937,-0.00013451,-0.00023023,-0.08173995,0.
 03654512,0.00893567,0.00088636,-0.00095410,-0.00100962,0.00084264,0.00
 061921,0.00026402,-0.00004268,0.00011054,-0.00004096,0.00011825,0.0002
 1271,0.00000848,0.00005285,0.00014983,0.00003685,0.00008983,-0.0001447
 2,0.00002937,0.00014549,0.00005103,0.00004994,0.00002999,-0.00011034,0
 .00002125,-0.00046795,-0.00023627,-0.00012408,-0.00007059,-0.00016926,
 -0.00001833,-0.00012260,0.00011322,-0.00006264,-0.00019365,-0.00005252
 ,-0.00007359,0.11067695,0.00069370,-0.00021937,-0.00070184,-0.00552065
 ,0.00248088,-0.00394914,0.02157316,-0.03107848,-0.00518841,-0.00200664
 ,-0.00472636,-0.00262872,-0.00088724,0.00100525,0.00019830,0.00173019,
 -0.00181630,0.00157058,-0.00016997,0.00002720,-0.00007706,-0.00017692,
 0.00004949,-0.00020983,-0.00027021,-0.00051107,-0.00104019,0.02826189,
 -0.24430948,-0.05818990,-0.00445150,-0.00062882,-0.00112737,0.00073255
 ,0.00079465,0.00105473,-0.00006901,0.00033297,-0.00018080,-0.00029155,
 -0.00109368,-0.00022755,0.00016379,0.00035781,0.00001065,0.00026010,-0
 .00018044,0.00011114,0.00036365,0.00008386,0.00016271,-0.00003525,-0.0
 0019982,0.00009178,0.00016703,0.00062732,0.00015701,-0.00017866,-0.000
 36075,-0.00004647,-0.00031675,0.00028668,-0.00017362,-0.00049061,-0.00
 010483,-0.00020395,-0.10342290,0.34457425,0.00029057,-0.00041842,-0.00
 046994,-0.00088613,-0.00004992,0.00160429,0.00807476,-0.02121840,0.000
 48052,-0.00095818,-0.00246617,-0.00100580,-0.00024776,0.00031067,-0.00
 024414,0.00096764,-0.00102043,0.00061348,-0.00010826,-0.00000911,0.000
 02540,-0.00006092,0.00005819,-0.00007328,-0.00013353,-0.00026919,-0.00
 048892,0.00595595,-0.05291816,-0.08879213,-0.00286232,-0.00034054,-0.0
 0027156,-0.00000932,0.00021562,0.00060944,-0.00006232,0.00023136,-0.00
 009986,-0.00001730,-0.00038030,-0.00008064,0.00008968,0.00017694,-0.00
 001468,0.00012473,-0.00012019,0.00005056,0.00018491,0.00004613,0.00008
 631,0.00000189,-0.00012266,0.00006592,-0.00007744,0.00015147,0.0001022
 8,-0.00009623,-0.00019610,-0.00002443,-0.00015270,0.00014314,-0.000087
 94,-0.00024461,-0.00005569,-0.00010286,-0.02668047,0.06019245,0.091401
 45,0.00017215,-0.00011534,-0.00018669,-0.00665739,-0.00361528,-0.00794
 506,0.00595738,0.01954420,-0.02004083,0.00061224,-0.00171223,0.0008108
 4,0.00024335,-0.00070521,-0.00040263,0.00050083,-0.00007173,0.00020579
 ,-0.00012773,0.00004330,0.00001880,-0.00000058,0.00011683,0.00006848,-
 0.00002249,-0.00010074,-0.00012547,-0.09362567,0.01141908,-0.05160036,
 -0.00494457,-0.00212081,-0.00168210,0.00231879,0.00071113,0.00032638,-
 0.00025917,0.00030566,-0.00015838,-0.00001134,-0.00028403,-0.00017848,
 0.00011996,0.00028380,0.00003930,0.00020758,-0.00020205,0.00014953,0.0
 0028470,0.00006651,0.00009829,0.00012529,-0.00022652,0.00004787,-0.000
 09445,0.00017726,0.00002930,-0.00014360,-0.00030270,-0.00003074,-0.000
 23478,0.00020998,-0.00011264,-0.00039692,-0.00009344,-0.00015310,0.000
 56664,0.02764945,-0.01490592,0.08965242,0.00003514,0.00135822,0.000306
 70,-0.00101620,0.00056626,-0.00174253,-0.00080383,0.00309455,-0.002554
 29,-0.00122866,-0.00002362,-0.00470369,-0.00085427,0.00055482,0.000728
 35,0.00005293,-0.00023314,0.00063789,0.00002603,-0.00000484,-0.0000753
 8,-0.00004541,-0.00007804,-0.00012092,-0.00000400,-0.00011581,-0.00019
 964,0.02010777,-0.09729155,0.06529591,-0.00154391,0.00006292,-0.000857
 29,0.00062773,0.00038667,-0.00025693,0.00000219,-0.00001153,0.00000886
 ,-0.00021002,-0.00026640,-0.00007381,0.00002821,0.00006235,0.00002661,
 0.00004838,0.00000037,0.00004270,0.00006871,0.00000667,0.00001262,-0.0
 0002162,-0.00002292,-0.00001744,0.00011051,0.00016157,0.00001313,-0.00
 003351,-0.00005918,-0.00000849,-0.00007019,0.00005521,-0.00002783,-0.0
 0009355,-0.00001692,-0.00003170,0.03132883,-0.05931253,0.04548629,-0.0
 3329495,0.15074654,0.00025380,-0.00094085,-0.00058507,-0.01052776,-0.0
 0565046,-0.00956998,0.00346882,0.03044118,-0.02732981,0.00016692,-0.00
 261292,-0.00077278,-0.00024011,-0.00011635,-0.00072404,0.00035389,-0.0
 0029676,0.00080325,-0.00014524,0.00014741,0.00015868,-0.00002308,0.000
 09059,-0.00005405,-0.00005967,-0.00017292,-0.00021532,-0.06076756,0.05
 369874,-0.22816620,-0.00522989,-0.00316716,0.00201633,0.00120653,-0.00
 025124,0.00145516,-0.00031452,0.00045450,-0.00026291,0.00032022,-0.000
 19598,-0.00015898,0.00015434,0.00028352,-0.00002652,0.00026254,-0.0002
 5776,0.00013497,0.00030357,0.00005794,0.00013960,0.00008501,-0.0002205
 6,0.00010904,-0.00023422,0.00014168,0.00008322,-0.00017944,-0.00035812
 ,-0.00003950,-0.00024127,0.00023268,-0.00013202,-0.00040600,-0.0000977
 7,-0.00017064,-0.01117731,0.03152796,0.00497733,0.05195978,-0.13108830
 ,0.31790139,0.00015644,0.00059665,-0.00008912,0.00121536,-0.00146046,-
 0.00260835,-0.03181905,0.00073081,0.03121925,0.00117342,-0.00116556,-0
 .00112826,-0.00020966,-0.00227012,0.00020786,0.00082301,-0.00070928,0.
 00025140,-0.00015783,-0.00001774,-0.00001623,-0.00003167,0.00014042,0.
 00006779,-0.00008862,-0.00020938,-0.00031563,-0.23749414,-0.03739541,0
 .06108970,-0.01320512,-0.00504627,-0.00564146,0.00208954,-0.00128305,0
 .00290882,-0.00143047,0.00109630,-0.00058739,-0.00017097,-0.00107557,-
 0.00022155,0.00035979,0.00043762,0.00002611,0.00047906,-0.00042187,0.0
 0020124,0.00065965,0.00014114,0.00030525,0.00034753,-0.00053451,0.0002
 4576,-0.00008704,0.00062479,0.00006766,-0.00040218,-0.00072968,-0.0001
 3828,-0.00054113,0.00047754,-0.00027348,-0.00090183,-0.00020824,-0.000
 37763,-0.03905812,0.03669234,0.03181327,0.00575736,-0.01321633,0.03101
 067,0.31253669,-0.00042105,-0.00020469,-0.00053541,-0.00023138,-0.0001
 2635,-0.00264753,-0.01358461,0.00405663,0.01241173,-0.00139198,-0.0015
 1363,0.00051628,-0.00146179,0.00029305,-0.00018903,-0.00007463,-0.0001
 0907,0.00069216,0.00005673,0.00009189,0.00001621,-0.00005525,-0.000021
 75,-0.00013256,-0.00001581,-0.00010868,-0.00013041,-0.03227419,-0.0786
 6225,0.00827651,-0.00680564,-0.00186558,-0.00198649,0.00078734,-0.0004
 6402,0.00131208,-0.00053001,0.00039367,-0.00025266,-0.00015468,-0.0005
 8604,-0.00015800,0.00015338,0.00019174,0.00000541,0.00021430,-0.000155
 36,0.00008295,0.00027621,0.00005007,0.00013343,0.00008071,-0.00019084,
 0.00010287,0.00004226,0.00035678,0.00006795,-0.00016724,-0.00030073,-0
 .00005728,-0.00023534,0.00020710,-0.00011629,-0.00038094,-0.00008437,-
 0.00016206,0.04904993,-0.00607842,-0.02742698,-0.01768218,0.00038033,0
 .02835096,0.02480584,0.08445051,-0.00015781,-0.00053602,-0.00024738,-0
 .00206601,-0.00122962,0.00377487,-0.00381944,-0.00191836,0.00151553,-0
 .00041099,-0.00051311,0.00104936,0.00005440,0.00075692,-0.00055067,-0.
 00010020,0.00025812,0.00013029,0.00003593,0.00008907,0.00007176,-0.000
 00196,-0.00000282,-0.00000476,0.00002682,-0.00000014,0.00004040,0.0778
 0926,0.01379844,-0.10845419,-0.00121148,-0.00042264,0.00047673,-0.0001
 2793,-0.00019173,0.00031180,0.00001924,0.00004403,0.00001400,0.0000184
 2,-0.00004681,0.00001472,-0.00001666,0.00002406,-0.00003431,0.00003122
 ,-0.00000349,-0.00000231,0.00001603,-0.00002375,0.00001299,-0.00000728
 ,-0.00000894,0.00001902,0.00003151,0.00003846,0.00002708,-0.00000110,-
 0.00001093,-0.00000240,-0.00000189,0.00000847,-0.00000139,-0.00001807,
 -0.00000208,-0.00000905,0.03414735,-0.02113248,-0.00826081,0.04376804,
 0.02919921,-0.05957115,-0.14801739,-0.01817386,0.16967989\\-0.00000007
 ,-0.00000040,-0.00000368,0.00000032,0.00000437,-0.00000184,0.00000541,
 0.00000086,0.00000214,-0.00000194,-0.00000357,-0.00000625,-0.00000062,
 -0.00000155,-0.00000443,0.00000073,0.00000041,-0.00000701,-0.00000245,
 0.00000295,-0.00000452,-0.00000212,0.00000335,-0.00000478,-0.00000129,
 0.00000308,-0.00000835,0.00000284,-0.00000078,-0.00000026,-0.00000503,
 -0.00000728,0.00000771,-0.00000014,0.00000021,-0.00000026,0.00000098,-
 0.00000090,-0.00000193,0.00000023,0.00000015,0.00000606,-0.00000026,0.
 00000094,-0.00000129,-0.00000010,0.00000178,0.00000523,-0.00000069,0.0
 0000234,0.00000258,0.00000015,-0.00000175,-0.00000410,0.00000150,-0.00
 000007,0.00000796,-0.00000074,0.00000132,-0.00000416,-0.00000018,0.000
 00317,0.00000855,-0.00000093,0.00000382,0.00000244,0.00000151,-0.00000
 512,0.00000573,0.00000250,-0.00000819,0.00000163,0.00000039,0.00000085
 ,0.00000283\\\@


 IF AT FIRST YOU DON'T SUCCEED, TRY LOOKING IN 
 THE WASTEBASKET FOR THE DIRECTIONS.
 Job cpu time:       0 days  9 hours 48 minutes 45.5 seconds.
 Elapsed time:       0 days  0 hours 24 minutes 33.7 seconds.
 File lengths (MBytes):  RWF=   1122 Int=      0 D2E=      0 Chk=     45 Scr=      1
 Normal termination of Gaussian 16 at Wed Aug 28 20:53:23 2024.
