 Entering Gaussian System, Link 0=g16
 Input=input.com
 Output=input.log
 Initial command:
 /share/apps/g16.b01_avx2/g16/l1.exe "/scratch/Gau-317603.inp" -scrdir="/scratch/"
 Entering Link 1 = /share/apps/g16.b01_avx2/g16/l1.exe PID=    317605.
  
 Copyright (c) 1988-2017, Gaussian, Inc.  All Rights Reserved.
  
 This is part of the Gaussian(R) 16 program.  It is based on
 the Gaussian(R) 09 system (copyright 2009, Gaussian, Inc.),
 the Gaussian(R) 03 system (copyright 2003, Gaussian, Inc.),
 the Gaussian(R) 98 system (copyright 1998, Gaussian, Inc.),
 the Gaussian(R) 94 system (copyright 1995, Gaussian, Inc.),
 the Gaussian 92(TM) system (copyright 1992, Gaussian, Inc.),
 the Gaussian 90(TM) system (copyright 1990, Gaussian, Inc.),
 the Gaussian 88(TM) system (copyright 1988, Gaussian, Inc.),
 the Gaussian 86(TM) system (copyright 1986, Carnegie Mellon
 University), and the Gaussian 82(TM) system (copyright 1983,
 Carnegie Mellon University). Gaussian is a federally registered
 trademark of Gaussian, Inc.
  
 This software contains proprietary and confidential information,
 including trade secrets, belonging to Gaussian, Inc.
  
 This software is provided under written license and may be
 used, copied, transmitted, or stored only in accord with that
 written license.
  
 The following legend is applicable only to US Government
 contracts under FAR:
  
                    RESTRICTED RIGHTS LEGEND
  
 Use, reproduction and disclosure by the US Government is
 subject to restrictions as set forth in subparagraphs (a)
 and (c) of the Commercial Computer Software - Restricted
 Rights clause in FAR 52.227-19.
  
 Gaussian, Inc.
 340 Quinnipiac St., Bldg. 40, Wallingford CT 06492
  
  
 ---------------------------------------------------------------
 Warning -- This program may not be used in any manner that
 competes with the business of Gaussian, Inc. or will provide
 assistance to any competitor of Gaussian, Inc.  The licensee
 of this program is prohibited from giving any competitor of
 Gaussian, Inc. access to this program.  By using this program,
 the user acknowledges that Gaussian, Inc. is engaged in the
 business of creating and licensing software in the field of
 computational chemistry and represents and warrants to the
 licensee that it is not a competitor of Gaussian, Inc. and that
 it will not use this program in any manner prohibited above.
 ---------------------------------------------------------------
  

 Cite this work as:
 Gaussian 16, Revision B.01,
 M. J. Frisch, G. W. Trucks, H. B. Schlegel, G. E. Scuseria, 
 M. A. Robb, J. R. Cheeseman, G. Scalmani, V. Barone, 
 G. A. Petersson, H. Nakatsuji, X. Li, M. Caricato, A. V. Marenich, 
 J. Bloino, B. G. Janesko, R. Gomperts, B. Mennucci, H. P. Hratchian, 
 J. V. Ortiz, A. F. Izmaylov, J. L. Sonnenberg, D. Williams-Young, 
 F. Ding, F. Lipparini, F. Egidi, J. Goings, B. Peng, A. Petrone, 
 T. Henderson, D. Ranasinghe, V. G. Zakrzewski, J. Gao, N. Rega, 
 G. Zheng, W. Liang, M. Hada, M. Ehara, K. Toyota, R. Fukuda, 
 J. Hasegawa, M. Ishida, T. Nakajima, Y. Honda, O. Kitao, H. Nakai, 
 T. Vreven, K. Throssell, J. A. Montgomery, Jr., J. E. Peralta, 
 F. Ogliaro, M. J. Bearpark, J. J. Heyd, E. N. Brothers, K. N. Kudin, 
 V. N. Staroverov, T. A. Keith, R. Kobayashi, J. Normand, 
 K. Raghavachari, A. P. Rendell, J. C. Burant, S. S. Iyengar, 
 J. Tomasi, M. Cossi, J. M. Millam, M. Klene, C. Adamo, R. Cammi, 
 J. W. Ochterski, R. L. Martin, K. Morokuma, O. Farkas, 
 J. B. Foresman, and D. J. Fox, Gaussian, Inc., Wallingford CT, 2016.
 
 ******************************************
 Gaussian 16:  ES64L-G16RevB.01 20-Dec-2017
                 2-Jul-2024 
 ******************************************
 %nproc=16
 Will use up to   16 processors via shared memory.
 %mem=60GB
 ----------------------------------------------------------------------
 #P PBE1PBE/def2TZVP opt freq EmpiricalDispersion=GD3 Int=(grid=99590) 
 scrf=(iefpcm, solvent=water)
 ----------------------------------------------------------------------
 1/18=20,19=15,26=6,38=1/1,3;
 2/9=110,12=2,17=6,18=5,40=1/2;
 3/5=44,7=101,11=2,25=1,30=1,70=2201,71=1,72=1,74=-13,75=99590,124=31/1,2,3;
 4//1;
 5/5=2,38=5,53=1/2;
 6/7=2,8=2,9=2,10=2,28=1/1;
 7//1,2,3,16;
 1/18=20,19=15,26=6/3(2);
 2/9=110/2;
 99//99;
 2/9=110/2;
 3/5=44,7=101,11=2,25=1,30=1,70=2205,71=1,72=1,74=-13,75=99590,124=31/1,2,3;
 4/5=5,16=3,69=1/1;
 5/5=2,38=5,53=1/2;
 7//1,2,3,16;
 1/18=20,19=15,26=6/3(-5);
 2/9=110/2;
 6/7=2,8=2,9=2,10=2,19=2,28=1/1;
 99/9=1/99;
 Leave Link    1 at Tue Jul  2 17:46:41 2024, MaxMem=  8053063680 cpu:               0.3 elap:               0.0
 (Enter /share/apps/g16.b01_avx2/g16/l101.exe)
 --------------------------
 N-Methylacetamide_product2
 --------------------------
 Symbolic Z-matrix:
 Charge =  0 Multiplicity = 1
 C                     0.64172   0.80342   0.17601 
 O                     0.03378  -0.29782   0.14071 
 N                     2.07657   0.84102   0.49332 
 H                     2.49971   1.62069   0.03173 
 C                    -0.11747   2.11169  -0.11322 
 H                     0.33312   2.91379   0.43314 
 H                    -0.07409   2.32511  -1.16082 
 H                    -1.13893   2.00517   0.18708 
 C                     2.71227  -0.40309   0.0362 
 H                     2.58335  -0.5018   -1.02141 
 H                     3.75669  -0.37571   0.26717 
 H                     2.25951  -1.23734   0.5301 
 
 ITRead=  0  0  0  0  0  0  0  0  0  0  0  0
 MicOpt= -1 -1 -1 -1 -1 -1 -1 -1 -1 -1 -1 -1
 NAtoms=     12 NQM=       12 NQMF=       0 NMMI=      0 NMMIF=      0
                NMic=       0 NMicF=      0.
                    Isotopes and Nuclear Properties:
 (Nuclear quadrupole moments (NQMom) in fm**2, nuclear magnetic moments (NMagM)
  in nuclear magnetons)

  Atom         1           2           3           4           5           6           7           8           9          10
 IAtWgt=          12          16          14           1          12           1           1           1          12           1
 AtmWgt=  12.0000000  15.9949146  14.0030740   1.0078250  12.0000000   1.0078250   1.0078250   1.0078250  12.0000000   1.0078250
 NucSpn=           0           0           2           1           0           1           1           1           0           1
 AtZEff=  -0.0000000  -0.0000000  -0.0000000  -0.0000000  -0.0000000  -0.0000000  -0.0000000  -0.0000000  -0.0000000  -0.0000000
 NQMom=    0.0000000   0.0000000   2.0440000   0.0000000   0.0000000   0.0000000   0.0000000   0.0000000   0.0000000   0.0000000
 NMagM=    0.0000000   0.0000000   0.4037610   2.7928460   0.0000000   2.7928460   2.7928460   2.7928460   0.0000000   2.7928460
 AtZNuc=   6.0000000   8.0000000   7.0000000   1.0000000   6.0000000   1.0000000   1.0000000   1.0000000   6.0000000   1.0000000

  Atom        11          12
 IAtWgt=           1           1
 AtmWgt=   1.0078250   1.0078250
 NucSpn=           1           1
 AtZEff=  -0.0000000  -0.0000000
 NQMom=    0.0000000   0.0000000
 NMagM=    2.7928460   2.7928460
 AtZNuc=   1.0000000   1.0000000
 Leave Link  101 at Tue Jul  2 17:46:42 2024, MaxMem=  8053063680 cpu:               5.0 elap:               0.3
 (Enter /share/apps/g16.b01_avx2/g16/l103.exe)

 GradGradGradGradGradGradGradGradGradGradGradGradGradGradGradGradGradGrad
 Berny optimization.
 Initialization pass.
                           ----------------------------
                           !    Initial Parameters    !
                           ! (Angstroms and Degrees)  !
 --------------------------                            --------------------------
 ! Name  Definition              Value          Derivative Info.                !
 --------------------------------------------------------------------------------
 ! R1    R(1,2)                  1.2584         estimate D2E/DX2                !
 ! R2    R(1,3)                  1.47           estimate D2E/DX2                !
 ! R3    R(1,5)                  1.54           estimate D2E/DX2                !
 ! R4    R(3,4)                  1.0            estimate D2E/DX2                !
 ! R5    R(3,9)                  1.47           estimate D2E/DX2                !
 ! R6    R(5,6)                  1.07           estimate D2E/DX2                !
 ! R7    R(5,7)                  1.07           estimate D2E/DX2                !
 ! R8    R(5,8)                  1.07           estimate D2E/DX2                !
 ! R9    R(9,10)                 1.07           estimate D2E/DX2                !
 ! R10   R(9,11)                 1.07           estimate D2E/DX2                !
 ! R11   R(9,12)                 1.07           estimate D2E/DX2                !
 ! A1    A(2,1,3)              120.0            estimate D2E/DX2                !
 ! A2    A(2,1,5)              120.0            estimate D2E/DX2                !
 ! A3    A(3,1,5)              120.0            estimate D2E/DX2                !
 ! A4    A(1,3,4)              109.4712         estimate D2E/DX2                !
 ! A5    A(1,3,9)              109.4712         estimate D2E/DX2                !
 ! A6    A(4,3,9)              109.4712         estimate D2E/DX2                !
 ! A7    A(1,5,6)              109.4712         estimate D2E/DX2                !
 ! A8    A(1,5,7)              109.4712         estimate D2E/DX2                !
 ! A9    A(1,5,8)              109.4712         estimate D2E/DX2                !
 ! A10   A(6,5,7)              109.4712         estimate D2E/DX2                !
 ! A11   A(6,5,8)              109.4712         estimate D2E/DX2                !
 ! A12   A(7,5,8)              109.4712         estimate D2E/DX2                !
 ! A13   A(3,9,10)             109.4712         estimate D2E/DX2                !
 ! A14   A(3,9,11)             109.4712         estimate D2E/DX2                !
 ! A15   A(3,9,12)             109.4712         estimate D2E/DX2                !
 ! A16   A(10,9,11)            109.4712         estimate D2E/DX2                !
 ! A17   A(10,9,12)            109.4712         estimate D2E/DX2                !
 ! A18   A(11,9,12)            109.4712         estimate D2E/DX2                !
 ! D1    D(2,1,3,4)            150.0            estimate D2E/DX2                !
 ! D2    D(2,1,3,9)             30.0            estimate D2E/DX2                !
 ! D3    D(5,1,3,4)            -30.0            estimate D2E/DX2                !
 ! D4    D(5,1,3,9)           -150.0            estimate D2E/DX2                !
 ! D5    D(2,1,5,6)            150.0            estimate D2E/DX2                !
 ! D6    D(2,1,5,7)            -90.0            estimate D2E/DX2                !
 ! D7    D(2,1,5,8)             30.0            estimate D2E/DX2                !
 ! D8    D(3,1,5,6)            -30.0            estimate D2E/DX2                !
 ! D9    D(3,1,5,7)             90.0            estimate D2E/DX2                !
 ! D10   D(3,1,5,8)           -150.0            estimate D2E/DX2                !
 ! D11   D(1,3,9,10)            60.0            estimate D2E/DX2                !
 ! D12   D(1,3,9,11)           180.0            estimate D2E/DX2                !
 ! D13   D(1,3,9,12)           -60.0            estimate D2E/DX2                !
 ! D14   D(4,3,9,10)           -60.0            estimate D2E/DX2                !
 ! D15   D(4,3,9,11)            60.0            estimate D2E/DX2                !
 ! D16   D(4,3,9,12)           180.0            estimate D2E/DX2                !
 --------------------------------------------------------------------------------
 Trust Radius=3.00D-01 FncErr=5.00D-06 GrdErr=5.00D-06 EigMax=2.50D+02 EigMin=1.00D-04
 Number of steps in this run=     55 maximum allowed number of steps=    100.
 GradGradGradGradGradGradGradGradGradGradGradGradGradGradGradGradGradGrad

 Leave Link  103 at Tue Jul  2 17:46:42 2024, MaxMem=  8053063680 cpu:               0.1 elap:               0.0
 (Enter /share/apps/g16.b01_avx2/g16/l202.exe)
                          Input orientation:                          
 ---------------------------------------------------------------------
 Center     Atomic      Atomic             Coordinates (Angstroms)
 Number     Number       Type             X           Y           Z
 ---------------------------------------------------------------------
      1          6           0        0.641720    0.803417    0.176008
      2          8           0        0.033777   -0.297823    0.140708
      3          7           0        2.076571    0.841025    0.493323
      4          1           0        2.499714    1.620695    0.031733
      5          6           0       -0.117471    2.111690   -0.113218
      6          1           0        0.333117    2.913792    0.433136
      7          1           0       -0.074091    2.325106   -1.160821
      8          1           0       -1.138929    2.005166    0.187076
      9          6           0        2.712275   -0.403089    0.036199
     10          1           0        2.583346   -0.501795   -1.021409
     11          1           0        3.756690   -0.375714    0.267170
     12          1           0        2.259511   -1.237335    0.530100
 ---------------------------------------------------------------------
                    Distance matrix (angstroms):
                    1          2          3          4          5
     1  C    0.000000
     2  O    1.258400   0.000000
     3  N    1.470000   2.365231   0.000000
     4  H    2.034920   3.126249   1.000000   0.000000
     5  C    1.540000   2.427572   2.606971   2.666785   0.000000
     6  H    2.148263   3.238764   2.709173   2.554871   1.070000
     7  H    2.148263   2.930080   3.092577   2.922816   1.070000
     8  H    2.148263   2.584792   3.433431   3.662195   1.070000
     9  C    2.400500   2.682602   1.470000   2.034920   3.788654
    10  H    2.628174   2.809346   2.086720   2.370879   3.866462
    11  H    3.331921   3.725875   2.086720   2.370879   4.619632
    12  H    2.628174   2.447081   2.086720   2.911082   4.156906
                    6          7          8          9         10
     6  H    0.000000
     7  H    1.747303   0.000000
     8  H    1.747303   1.747303   0.000000
     9  C    4.101176   4.079183   4.544692   0.000000
    10  H    4.341137   3.882368   4.647647   1.070000   0.000000
    11  H    4.750710   4.899844   5.444455   1.070000   1.747303
    12  H    4.577363   4.582128   4.709658   1.070000   1.747303
                   11         12
    11  H    0.000000
    12  H    1.747303   0.000000
 Stoichiometry    C3H7NO
 Framework group  C1[X(C3H7NO)]
 Deg. of freedom    30
 Full point group                 C1      NOp   1
 Largest Abelian subgroup         C1      NOp   1
 Largest concise Abelian subgroup C1      NOp   1
                         Standard orientation:                         
 ---------------------------------------------------------------------
 Center     Atomic      Atomic             Coordinates (Angstroms)
 Number     Number       Type             X           Y           Z
 ---------------------------------------------------------------------
      1          6           0       -0.477972    0.129419   -0.091322
      2          8           0       -0.346220    1.380369   -0.054764
      3          7           0        0.691017   -0.725739   -0.342458
      4          1           0        0.565752   -1.604956    0.117200
      5          6           0       -1.863863   -0.505583    0.127033
      6          1           0       -1.925602   -1.423626   -0.419123
      7          1           0       -2.006696   -0.700398    1.169408
      8          1           0       -2.622215    0.166070   -0.217472
      9          6           0        1.899219   -0.068991    0.176993
     10          1           0        1.793729    0.090749    1.229730
     11          1           0        2.750116   -0.691453   -0.005806
     12          1           0        2.033253    0.871771   -0.314841
 ---------------------------------------------------------------------
 Rotational constants (GHZ):           9.5507273           3.8272312           2.9068923
 Leave Link  202 at Tue Jul  2 17:46:42 2024, MaxMem=  8053063680 cpu:               0.0 elap:               0.0
 (Enter /share/apps/g16.b01_avx2/g16/l301.exe)
 Standard basis: def2TZVP (5D, 7F)
 Ernie: Thresh=  0.10000D-02 Tol=  0.10000D-05 Strict=F.
 There are   222 symmetry adapted cartesian basis functions of A   symmetry.
 There are   197 symmetry adapted basis functions of A   symmetry.
   197 basis functions,   311 primitive gaussians,   222 cartesian basis functions
    20 alpha electrons       20 beta electrons
       nuclear repulsion energy       177.9868647672 Hartrees.
 IExCor= 1009 DFT=T Ex+Corr=PBE1PBE ExCW=0 ScaHFX=  0.250000
 ScaDFX=  0.750000  0.750000  1.000000  1.000000 ScalE2=  1.000000  1.000000
 IRadAn=  99590 IRanWt=     -1 IRanGd=            0 ICorTp=0 IEmpDi=131
 NAtoms=   12 NActive=   12 NUniq=   12 SFac= 1.00D+00 NAtFMM=   60 NAOKFM=F Big=F
 Integral buffers will be    131072 words long.
 Raffenetti 2 integral format.
 Two-electron integral symmetry is turned on.
 R6Disp:  Grimme-D3 Dispersion energy=       -0.0036518084 Hartrees.
 Nuclear repulsion after empirical dispersion term =      177.9832129587 Hartrees.
 ------------------------------------------------------------------------------
 Polarizable Continuum Model (PCM)
 =================================
 Model                : PCM.
 Atomic radii         : UFF (Universal Force Field).
 Polarization charges : Total charges.
 Charge compensation  : None.
 Solution method      : On-the-fly selection.
 Cavity type          : Scaled VdW (van der Waals Surface) (Alpha=1.100).
 Cavity algorithm     : GePol (No added spheres)
                        Default sphere list used, NSphG=   12.
                        Lebedev-Laikov grids with approx.  5.0 points / Ang**2.
                        Smoothing algorithm: York/Karplus (Gamma=1.0000).
                        Polarization charges: spherical gaussians, with
                                              point-specific exponents (IZeta= 3).
                        Self-potential: point-specific (ISelfS= 7).
                        Self-field    : sphere-specific E.n sum rule (ISelfD= 2).
 1st derivatives      : Analytical E(r).r(x)/FMM algorithm (CHGder, D1EAlg=3).
                        Cavity 1st derivative terms included.
 Solvent              : Water, Eps=  78.355300 Eps(inf)=   1.777849
 ------------------------------------------------------------------------------
 Spheres list:
 ISph  on   Nord     Re0    Alpha      Xe            Ye            Ze
    1   C      1    1.9255  1.100     -0.477972      0.129419     -0.091322
    2   O      2    1.7500  1.100     -0.346220      1.380369     -0.054764
    3   N      3    1.8300  1.100      0.691017     -0.725739     -0.342458
    4   H      4    1.4430  1.100      0.565752     -1.604956      0.117200
    5   C      5    1.9255  1.100     -1.863863     -0.505583      0.127033
    6   H      6    1.4430  1.100     -1.925602     -1.423626     -0.419123
    7   H      7    1.4430  1.100     -2.006696     -0.700398      1.169408
    8   H      8    1.4430  1.100     -2.622215      0.166070     -0.217472
    9   C      9    1.9255  1.100      1.899219     -0.068991      0.176993
   10   H     10    1.4430  1.100      1.793729      0.090749      1.229730
   11   H     11    1.4430  1.100      2.750116     -0.691453     -0.005806
   12   H     12    1.4430  1.100      2.033253      0.871771     -0.314841
 ------------------------------------------------------------------------------
 GePol: Number of generator spheres                  =      12
 GePol: Total number of spheres                      =      12
 GePol: Number of exposed spheres                    =      12 (100.00%)
 GePol: Number of points                             =    1040
 GePol: Average weight of points                     =       0.14
 GePol: Minimum weight of points                     =   0.12D-10
 GePol: Maximum weight of points                     =    0.20577
 GePol: Number of points with low weight             =      56
 GePol: Fraction of low-weight points (<1% of avg)   =       5.38%
 GePol: Cavity surface area                          =    140.866 Ang**2
 GePol: Cavity volume                                =    126.472 Ang**3
 Leave Link  301 at Tue Jul  2 17:46:42 2024, MaxMem=  8053063680 cpu:               0.4 elap:               0.0
 (Enter /share/apps/g16.b01_avx2/g16/l302.exe)
 NPDir=0 NMtPBC=     1 NCelOv=     1 NCel=       1 NClECP=     1 NCelD=      1
         NCelK=      1 NCelE2=     1 NClLst=     1 CellRange=     0.0.
 One-electron integrals computed using PRISM.
 One-electron integral symmetry used in STVInt
   1 Symmetry operations used in ECPInt.
 ECPInt:  NShTT=    3486 NPrTT=   10284 LenC2=    3461 LenP2D=    8588.
 LDataN:  DoStor=T MaxTD1= 6 Len=  172
 NBasis=   197 RedAO= T EigKep=  4.23D-04  NBF=   197
 NBsUse=   197 1.00D-06 EigRej= -1.00D+00 NBFU=   197
 Precomputing XC quadrature grid using
 IXCGrd= 4 IRadAn=       99590 IRanWt=          -1 IRanGd=           0 AccXCQ= 0.00D+00.
 Generated NRdTot=       0 NPtTot=           0 NUsed=           0 NTot=          32
 NSgBfM=   221   221   221   221   221 MxSgAt=    12 MxSgA2=    12.
 Leave Link  302 at Tue Jul  2 17:46:42 2024, MaxMem=  8053063680 cpu:               1.3 elap:               0.1
 (Enter /share/apps/g16.b01_avx2/g16/l303.exe)
 DipDrv:  MaxL=1.
 Leave Link  303 at Tue Jul  2 17:46:42 2024, MaxMem=  8053063680 cpu:               0.3 elap:               0.0
 (Enter /share/apps/g16.b01_avx2/g16/l401.exe)
 ExpMin= 9.52D-02 ExpMax= 2.70D+04 ExpMxC= 9.22D+02 IAcc=4 IRadAn=    199590 AccDes= 0.00D+00
 Harris functional with IExCor= 1009 and IRadAn=  199590 diagonalized for initial guess.
 HarFok:  IExCor= 1009 AccDes= 0.00D+00 IRadAn=    199590 IDoV= 1 UseB2=F ITyADJ=14
 ICtDFT=  3500011 ScaDFX=  1.000000  1.000000  1.000000  1.000000
 FoFCou: FMM=F IPFlag=           0 FMFlag=      100000 FMFlg1=           0
         NFxFlg=           0 DoJE=T BraDBF=F KetDBF=T FulRan=T
         wScrn=  0.000000 ICntrl=       500 IOpCl=  0 I1Cent=   200000004 NGrid=           0
         NMat0=    1 NMatS0=      1 NMatT0=    0 NMatD0=    1 NMtDS0=    0 NMtDT0=    0
 Petite list used in FoFCou.
 Harris En= -248.422390867297    
 JPrj=0 DoOrth=F DoCkMO=F.
 Leave Link  401 at Tue Jul  2 17:46:42 2024, MaxMem=  8053063680 cpu:               6.9 elap:               0.4
 (Enter /share/apps/g16.b01_avx2/g16/l502.exe)
 Keep R1 ints in memory in canonical form, NReq=207013738.
 FoFCou: FMM=F IPFlag=           0 FMFlag=           0 FMFlg1=           0
         NFxFlg=           0 DoJE=F BraDBF=F KetDBF=F FulRan=T
         wScrn=  0.000000 ICntrl=       600 IOpCl=  0 I1Cent=           0 NGrid=           0
         NMat0=    1 NMatS0=  19503 NMatT0=    0 NMatD0=    1 NMtDS0=    0 NMtDT0=    0
 Symmetry not used in FoFCou.
 Two-electron integral symmetry not used.
 Closed shell SCF:
 Using DIIS extrapolation, IDIIS=  1040.
 NGot=  8053063680 LenX=  7862766154 LenY=  7862716429
 Requested convergence on RMS density matrix=1.00D-08 within 128 cycles.
 Requested convergence on MAX density matrix=1.00D-06.
 Requested convergence on             energy=1.00D-06.
 No special actions if energy rises.

 Cycle   1  Pass 1  IDiag  1:
 Inv3:  Mode=1 IEnd=     3244800.
 Iteration    1 A*A^-1 deviation from unit magnitude is 3.77D-15 for    380.
 Iteration    1 A*A^-1 deviation from orthogonality  is 2.22D-15 for    802    495.
 Iteration    1 A^-1*A deviation from unit magnitude is 4.00D-15 for    380.
 Iteration    1 A^-1*A deviation from orthogonality  is 1.78D-15 for    786    511.
 E= -248.152955083435    
 DIIS: error= 3.15D-02 at cycle   1 NSaved=   1.
 NSaved= 1 IEnMin= 1 EnMin= -248.152955083435     IErMin= 1 ErrMin= 3.15D-02
 ErrMax= 3.15D-02  0.00D+00 EMaxC= 1.00D-01 BMatC= 2.20D-01 BMatP= 2.20D-01
 IDIUse=3 WtCom= 6.85D-01 WtEn= 3.15D-01
 Coeff-Com:  0.100D+01
 Coeff-En:   0.100D+01
 Coeff:      0.100D+01
 Gap=     0.223 Goal=   None    Shift=    0.000
 GapD=    0.223 DampG=1.000 DampE=0.500 DampFc=0.5000 IDamp=-1.
 Damping current iteration by 5.00D-01
 RMSDP=4.46D-03 MaxDP=1.47D-01              OVMax= 1.94D-01

 Cycle   2  Pass 1  IDiag  1:
 E= -248.216529659735     Delta-E=       -0.063574576300 Rises=F Damp=T
 DIIS: error= 7.84D-03 at cycle   2 NSaved=   2.
 NSaved= 2 IEnMin= 2 EnMin= -248.216529659735     IErMin= 2 ErrMin= 7.84D-03
 ErrMax= 7.84D-03  0.00D+00 EMaxC= 1.00D-01 BMatC= 2.40D-02 BMatP= 2.20D-01
 IDIUse=3 WtCom= 9.22D-01 WtEn= 7.84D-02
 Coeff-Com:  0.153D+00 0.847D+00
 Coeff-En:   0.248D+00 0.752D+00
 Coeff:      0.160D+00 0.840D+00
 Gap=     0.279 Goal=   None    Shift=    0.000
 RMSDP=1.29D-03 MaxDP=5.67D-02 DE=-6.36D-02 OVMax= 1.59D-01

 Cycle   3  Pass 1  IDiag  1:
 E= -248.308297641631     Delta-E=       -0.091767981897 Rises=F Damp=F
 DIIS: error= 1.04D-02 at cycle   3 NSaved=   3.
 NSaved= 3 IEnMin= 3 EnMin= -248.308297641631     IErMin= 2 ErrMin= 7.84D-03
 ErrMax= 1.04D-02  0.00D+00 EMaxC= 1.00D-01 BMatC= 2.45D-02 BMatP= 2.40D-02
 IDIUse=3 WtCom= 8.96D-01 WtEn= 1.04D-01
 Coeff-Com:  0.239D-01 0.500D+00 0.476D+00
 Coeff-En:   0.000D+00 0.000D+00 0.100D+01
 Coeff:      0.214D-01 0.448D+00 0.530D+00
 Gap=     0.273 Goal=   None    Shift=    0.000
 RMSDP=6.09D-04 MaxDP=2.32D-02 DE=-9.18D-02 OVMax= 5.11D-02

 Cycle   4  Pass 1  IDiag  1:
 E= -248.324986048976     Delta-E=       -0.016688407345 Rises=F Damp=F
 DIIS: error= 3.56D-03 at cycle   4 NSaved=   4.
 NSaved= 4 IEnMin= 4 EnMin= -248.324986048976     IErMin= 4 ErrMin= 3.56D-03
 ErrMax= 3.56D-03  0.00D+00 EMaxC= 1.00D-01 BMatC= 3.46D-03 BMatP= 2.40D-02
 IDIUse=3 WtCom= 9.64D-01 WtEn= 3.56D-02
 Coeff-Com: -0.350D-02 0.630D-01 0.287D+00 0.653D+00
 Coeff-En:   0.000D+00 0.000D+00 0.135D+00 0.865D+00
 Coeff:     -0.337D-02 0.608D-01 0.282D+00 0.661D+00
 Gap=     0.266 Goal=   None    Shift=    0.000
 RMSDP=2.10D-04 MaxDP=6.50D-03 DE=-1.67D-02 OVMax= 1.63D-02

 Cycle   5  Pass 1  IDiag  1:
 E= -248.327510994447     Delta-E=       -0.002524945471 Rises=F Damp=F
 DIIS: error= 6.58D-04 at cycle   5 NSaved=   5.
 NSaved= 5 IEnMin= 5 EnMin= -248.327510994447     IErMin= 5 ErrMin= 6.58D-04
 ErrMax= 6.58D-04  0.00D+00 EMaxC= 1.00D-01 BMatC= 1.87D-04 BMatP= 3.46D-03
 IDIUse=3 WtCom= 9.93D-01 WtEn= 6.58D-03
 Coeff-Com: -0.260D-02 0.128D-01 0.134D+00 0.366D+00 0.489D+00
 Coeff-En:   0.000D+00 0.000D+00 0.000D+00 0.000D+00 0.100D+01
 Coeff:     -0.259D-02 0.127D-01 0.133D+00 0.364D+00 0.493D+00
 Gap=     0.266 Goal=   None    Shift=    0.000
 RMSDP=4.94D-05 MaxDP=1.70D-03 DE=-2.52D-03 OVMax= 4.18D-03

 Cycle   6  Pass 1  IDiag  1:
 E= -248.327665201512     Delta-E=       -0.000154207065 Rises=F Damp=F
 DIIS: error= 1.40D-04 at cycle   6 NSaved=   6.
 NSaved= 6 IEnMin= 6 EnMin= -248.327665201512     IErMin= 6 ErrMin= 1.40D-04
 ErrMax= 1.40D-04  0.00D+00 EMaxC= 1.00D-01 BMatC= 7.77D-06 BMatP= 1.87D-04
 IDIUse=3 WtCom= 9.99D-01 WtEn= 1.40D-03
 Coeff-Com: -0.776D-03-0.181D-03 0.325D-01 0.967D-01 0.223D+00 0.648D+00
 Coeff-En:   0.000D+00 0.000D+00 0.000D+00 0.000D+00 0.000D+00 0.100D+01
 Coeff:     -0.775D-03-0.180D-03 0.324D-01 0.965D-01 0.223D+00 0.649D+00
 Gap=     0.266 Goal=   None    Shift=    0.000
 RMSDP=9.19D-06 MaxDP=3.44D-04 DE=-1.54D-04 OVMax= 6.47D-04

 Cycle   7  Pass 1  IDiag  1:
 E= -248.327671225310     Delta-E=       -0.000006023798 Rises=F Damp=F
 DIIS: error= 2.78D-05 at cycle   7 NSaved=   7.
 NSaved= 7 IEnMin= 7 EnMin= -248.327671225310     IErMin= 7 ErrMin= 2.78D-05
 ErrMax= 2.78D-05  0.00D+00 EMaxC= 1.00D-01 BMatC= 2.54D-07 BMatP= 7.77D-06
 IDIUse=1 WtCom= 1.00D+00 WtEn= 0.00D+00
 Coeff-Com: -0.134D-03-0.502D-03 0.598D-02 0.183D-01 0.643D-01 0.240D+00
 Coeff-Com:  0.672D+00
 Coeff:     -0.134D-03-0.502D-03 0.598D-02 0.183D-01 0.643D-01 0.240D+00
 Coeff:      0.672D+00
 Gap=     0.266 Goal=   None    Shift=    0.000
 RMSDP=3.19D-06 MaxDP=8.75D-05 DE=-6.02D-06 OVMax= 1.31D-04

 Cycle   8  Pass 1  IDiag  1:
 E= -248.327671431840     Delta-E=       -0.000000206530 Rises=F Damp=F
 DIIS: error= 1.01D-05 at cycle   8 NSaved=   8.
 NSaved= 8 IEnMin= 8 EnMin= -248.327671431840     IErMin= 8 ErrMin= 1.01D-05
 ErrMax= 1.01D-05  0.00D+00 EMaxC= 1.00D-01 BMatC= 2.65D-08 BMatP= 2.54D-07
 IDIUse=1 WtCom= 1.00D+00 WtEn= 0.00D+00
 Coeff-Com:  0.372D-04-0.212D-03-0.104D-02-0.321D-02 0.179D-02 0.180D-01
 Coeff-Com:  0.263D+00 0.722D+00
 Coeff:      0.372D-04-0.212D-03-0.104D-02-0.321D-02 0.179D-02 0.180D-01
 Coeff:      0.263D+00 0.722D+00
 Gap=     0.266 Goal=   None    Shift=    0.000
 RMSDP=6.29D-07 MaxDP=1.91D-05 DE=-2.07D-07 OVMax= 3.37D-05

 Cycle   9  Pass 1  IDiag  1:
 E= -248.327671456409     Delta-E=       -0.000000024569 Rises=F Damp=F
 DIIS: error= 1.19D-06 at cycle   9 NSaved=   9.
 NSaved= 9 IEnMin= 9 EnMin= -248.327671456409     IErMin= 9 ErrMin= 1.19D-06
 ErrMax= 1.19D-06  0.00D+00 EMaxC= 1.00D-01 BMatC= 2.55D-10 BMatP= 2.65D-08
 IDIUse=1 WtCom= 1.00D+00 WtEn= 0.00D+00
 Coeff-Com:  0.936D-05-0.274D-04-0.338D-03-0.102D-02-0.104D-02-0.386D-02
 Coeff-Com:  0.309D-01 0.130D+00 0.846D+00
 Coeff:      0.936D-05-0.274D-04-0.338D-03-0.102D-02-0.104D-02-0.386D-02
 Coeff:      0.309D-01 0.130D+00 0.846D+00
 Gap=     0.266 Goal=   None    Shift=    0.000
 RMSDP=1.16D-07 MaxDP=3.33D-06 DE=-2.46D-08 OVMax= 5.26D-06

 Cycle  10  Pass 1  IDiag  1:
 E= -248.327671456679     Delta-E=       -0.000000000270 Rises=F Damp=F
 DIIS: error= 1.54D-07 at cycle  10 NSaved=  10.
 NSaved=10 IEnMin=10 EnMin= -248.327671456679     IErMin=10 ErrMin= 1.54D-07
 ErrMax= 1.54D-07  0.00D+00 EMaxC= 1.00D-01 BMatC= 8.98D-12 BMatP= 2.55D-10
 IDIUse=1 WtCom= 1.00D+00 WtEn= 0.00D+00
 Coeff-Com: -0.935D-06 0.432D-05-0.463D-05-0.727D-05-0.175D-03-0.136D-02
 Coeff-Com: -0.674D-02-0.119D-01 0.122D+00 0.898D+00
 Coeff:     -0.935D-06 0.432D-05-0.463D-05-0.727D-05-0.175D-03-0.136D-02
 Coeff:     -0.674D-02-0.119D-01 0.122D+00 0.898D+00
 Gap=     0.266 Goal=   None    Shift=    0.000
 RMSDP=2.17D-08 MaxDP=4.55D-07 DE=-2.70D-10 OVMax= 2.29D-06

 Cycle  11  Pass 1  IDiag  1:
 E= -248.327671456689     Delta-E=       -0.000000000010 Rises=F Damp=F
 DIIS: error= 7.24D-08 at cycle  11 NSaved=  11.
 NSaved=11 IEnMin=11 EnMin= -248.327671456689     IErMin=11 ErrMin= 7.24D-08
 ErrMax= 7.24D-08  0.00D+00 EMaxC= 1.00D-01 BMatC= 1.30D-12 BMatP= 8.98D-12
 IDIUse=1 WtCom= 1.00D+00 WtEn= 0.00D+00
 Coeff-Com: -0.636D-06 0.243D-05 0.118D-04 0.330D-04-0.170D-04-0.344D-03
 Coeff-Com: -0.355D-02-0.891D-02 0.100D-01 0.304D+00 0.699D+00
 Coeff:     -0.636D-06 0.243D-05 0.118D-04 0.330D-04-0.170D-04-0.344D-03
 Coeff:     -0.355D-02-0.891D-02 0.100D-01 0.304D+00 0.699D+00
 Gap=     0.266 Goal=   None    Shift=    0.000
 RMSDP=5.31D-09 MaxDP=1.35D-07 DE=-1.05D-11 OVMax= 3.05D-07

 Error on total polarization charges =  0.00946
 SCF Done:  E(RPBE1PBE) =  -248.327671457     A.U. after   11 cycles
            NFock= 11  Conv=0.53D-08     -V/T= 2.0053
 KE= 2.470091444737D+02 PE=-9.361540774901D+02 EE= 2.628340486010D+02
 Leave Link  502 at Tue Jul  2 17:46:47 2024, MaxMem=  8053063680 cpu:              66.2 elap:               5.0
 (Enter /share/apps/g16.b01_avx2/g16/l601.exe)
 Copying SCF densities to generalized density rwf, IOpCl= 0 IROHF=0.

 **********************************************************************

            Population analysis using the SCF Density.

 **********************************************************************

 Orbital symmetries:
       Occupied  (A) (A) (A) (A) (A) (A) (A) (A) (A) (A) (A) (A)
                 (A) (A) (A) (A) (A) (A) (A) (A)
       Virtual   (A) (A) (A) (A) (A) (A) (A) (A) (A) (A) (A) (A)
                 (A) (A) (A) (A) (A) (A) (A) (A) (A) (A) (A) (A)
                 (A) (A) (A) (A) (A) (A) (A) (A) (A) (A) (A) (A)
                 (A) (A) (A) (A) (A) (A) (A) (A) (A) (A) (A) (A)
                 (A) (A) (A) (A) (A) (A) (A) (A) (A) (A) (A) (A)
                 (A) (A) (A) (A) (A) (A) (A) (A) (A) (A) (A) (A)
                 (A) (A) (A) (A) (A) (A) (A) (A) (A) (A) (A) (A)
                 (A) (A) (A) (A) (A) (A) (A) (A) (A) (A) (A) (A)
                 (A) (A) (A) (A) (A) (A) (A) (A) (A) (A) (A) (A)
                 (A) (A) (A) (A) (A) (A) (A) (A) (A) (A) (A) (A)
                 (A) (A) (A) (A) (A) (A) (A) (A) (A) (A) (A) (A)
                 (A) (A) (A) (A) (A) (A) (A) (A) (A) (A) (A) (A)
                 (A) (A) (A) (A) (A) (A) (A) (A) (A) (A) (A) (A)
                 (A) (A) (A) (A) (A) (A) (A) (A) (A) (A) (A) (A)
                 (A) (A) (A) (A) (A) (A) (A) (A) (A)
 The electronic state is 1-A.
 Alpha  occ. eigenvalues --  -19.19273 -14.40994 -10.34608 -10.23626 -10.22543
 Alpha  occ. eigenvalues --   -1.05977  -0.93613  -0.77249  -0.70045  -0.58529
 Alpha  occ. eigenvalues --   -0.51662  -0.48450  -0.47415  -0.44199  -0.42513
 Alpha  occ. eigenvalues --   -0.41508  -0.39651  -0.36949  -0.29781  -0.27468
 Alpha virt. eigenvalues --   -0.00910   0.04536   0.08226   0.09763   0.12136
 Alpha virt. eigenvalues --    0.13185   0.13375   0.14348   0.15432   0.15996
 Alpha virt. eigenvalues --    0.19192   0.21227   0.23007   0.23814   0.25438
 Alpha virt. eigenvalues --    0.28241   0.29546   0.30533   0.33666   0.37635
 Alpha virt. eigenvalues --    0.39257   0.39496   0.41134   0.42816   0.43370
 Alpha virt. eigenvalues --    0.44574   0.47577   0.48720   0.49563   0.50405
 Alpha virt. eigenvalues --    0.52429   0.53555   0.53619   0.57361   0.59399
 Alpha virt. eigenvalues --    0.61418   0.61781   0.69104   0.73908   0.76248
 Alpha virt. eigenvalues --    0.80302   0.83197   0.84818   0.87497   0.92665
 Alpha virt. eigenvalues --    0.92974   0.98074   0.98968   1.02233   1.05658
 Alpha virt. eigenvalues --    1.09144   1.10131   1.21168   1.24603   1.31301
 Alpha virt. eigenvalues --    1.35287   1.37275   1.45269   1.45886   1.48153
 Alpha virt. eigenvalues --    1.50432   1.51703   1.54171   1.55192   1.55975
 Alpha virt. eigenvalues --    1.56647   1.58399   1.60157   1.63050   1.66240
 Alpha virt. eigenvalues --    1.74041   1.75871   1.80114   1.85829   1.86960
 Alpha virt. eigenvalues --    1.91353   1.94975   1.95889   1.98722   2.00420
 Alpha virt. eigenvalues --    2.02511   2.08321   2.13900   2.15055   2.16154
 Alpha virt. eigenvalues --    2.18749   2.21517   2.25497   2.34009   2.35733
 Alpha virt. eigenvalues --    2.36340   2.37154   2.40431   2.45826   2.48618
 Alpha virt. eigenvalues --    2.55845   2.57195   2.57456   2.59698   2.64783
 Alpha virt. eigenvalues --    2.65754   2.69889   2.73260   2.74594   2.78233
 Alpha virt. eigenvalues --    2.87786   2.91010   2.93018   2.97746   3.01680
 Alpha virt. eigenvalues --    3.03857   3.05194   3.06494   3.09637   3.14419
 Alpha virt. eigenvalues --    3.15483   3.15742   3.17859   3.21466   3.24028
 Alpha virt. eigenvalues --    3.27464   3.29524   3.32964   3.37400   3.39013
 Alpha virt. eigenvalues --    3.39752   3.43918   3.50427   3.51807   3.57990
 Alpha virt. eigenvalues --    3.59261   3.63909   3.66127   3.74596   3.82676
 Alpha virt. eigenvalues --    3.85780   3.91117   3.95941   4.03327   4.11205
 Alpha virt. eigenvalues --    4.16091   4.24462   4.38813   4.40207   4.43875
 Alpha virt. eigenvalues --    4.45299   4.47828   4.58046   4.64736   4.78973
 Alpha virt. eigenvalues --    4.79596   4.98690   5.00215   5.06368   5.14009
 Alpha virt. eigenvalues --    5.17174   5.22069   5.23398   5.27127   5.35393
 Alpha virt. eigenvalues --    5.46520   5.57798   5.70111   5.83880   6.02595
 Alpha virt. eigenvalues --    6.21171   6.40243   6.44355   6.54251   6.82146
 Alpha virt. eigenvalues --    7.01125   7.03618  22.43537  22.51025  22.91801
 Alpha virt. eigenvalues --   32.24105  43.88141
          Condensed to atoms (all electrons):
               1          2          3          4          5          6
     1  C    4.523987   0.627327   0.365464  -0.027917   0.351302  -0.037647
     2  O    0.627327   8.000460  -0.112000   0.004314  -0.088552   0.004934
     3  N    0.365464  -0.112000   6.592341   0.357738  -0.094683   0.011363
     4  H   -0.027917   0.004314   0.357738   0.458278   0.000637  -0.002498
     5  C    0.351302  -0.088552  -0.094683   0.000637   5.024212   0.389352
     6  H   -0.037647   0.004934   0.011363  -0.002498   0.389352   0.521908
     7  H   -0.012618   0.001267   0.000821  -0.000612   0.382692  -0.016422
     8  H   -0.022504   0.006309   0.006575   0.000434   0.391474  -0.019439
     9  C   -0.041108  -0.012570   0.284221  -0.035103   0.007012   0.000399
    10  H   -0.002593   0.004241  -0.058698  -0.006561   0.001336   0.000240
    11  H    0.008824   0.002236  -0.028962  -0.004335   0.000225  -0.000109
    12  H   -0.014528   0.013538  -0.029655   0.008027   0.001392  -0.000303
               7          8          9         10         11         12
     1  C   -0.012618  -0.022504  -0.041108  -0.002593   0.008824  -0.014528
     2  O    0.001267   0.006309  -0.012570   0.004241   0.002236   0.013538
     3  N    0.000821   0.006575   0.284221  -0.058698  -0.028962  -0.029655
     4  H   -0.000612   0.000434  -0.035103  -0.006561  -0.004335   0.008027
     5  C    0.382692   0.391474   0.007012   0.001336   0.000225   0.001392
     6  H   -0.016422  -0.019439   0.000399   0.000240  -0.000109  -0.000303
     7  H    0.500222  -0.015131  -0.000179   0.000336  -0.000042  -0.000092
     8  H   -0.015131   0.506001  -0.000702  -0.000192   0.000007   0.000032
     9  C   -0.000179  -0.000702   4.852551   0.437415   0.398724   0.406230
    10  H    0.000336  -0.000192   0.437415   0.546076  -0.026755  -0.034068
    11  H   -0.000042   0.000007   0.398724  -0.026755   0.525011  -0.018610
    12  H   -0.000092   0.000032   0.406230  -0.034068  -0.018610   0.526462
 Mulliken charges:
               1
     1  C    0.282013
     2  O   -0.451502
     3  N   -0.294526
     4  H    0.247598
     5  C   -0.366399
     6  H    0.148223
     7  H    0.159760
     8  H    0.147135
     9  C   -0.296889
    10  H    0.139223
    11  H    0.143788
    12  H    0.141576
 Sum of Mulliken charges =  -0.00000
 Mulliken charges with hydrogens summed into heavy atoms:
               1
     1  C    0.282013
     2  O   -0.451502
     3  N   -0.046927
     5  C    0.088719
     9  C    0.127697
 Electronic spatial extent (au):  <R**2>=            458.3032
 Charge=             -0.0000 electrons
 Dipole moment (field-independent basis, Debye):
    X=             -0.0042    Y=             -4.1841    Z=              1.4759  Tot=              4.4368
 Quadrupole moment (field-independent basis, Debye-Ang):
   XX=            -25.9276   YY=            -33.7177   ZZ=            -31.5131
   XY=              1.3737   XZ=              0.7398   YZ=             -1.4763
 Traceless Quadrupole moment (field-independent basis, Debye-Ang):
   XX=              4.4586   YY=             -3.3316   ZZ=             -1.1270
   XY=              1.3737   XZ=              0.7398   YZ=             -1.4763
 Octapole moment (field-independent basis, Debye-Ang**2):
  XXX=              0.1093  YYY=            -11.9224  ZZZ=              3.3699  XYY=              2.9940
  XXY=             -1.8682  XXZ=              0.6247  XZZ=             -1.8778  YZZ=              1.0632
  YYZ=              1.1669  XYZ=             -0.8100
 Hexadecapole moment (field-independent basis, Debye-Ang**3):
 XXXX=           -375.6644 YYYY=           -148.5908 ZZZZ=            -49.7926 XXXY=             -6.5936
 XXXZ=             -0.1633 YYYX=              0.4652 YYYZ=             -1.8005 ZZZX=             -0.2157
 ZZZY=             -2.8340 XXYY=            -88.9297 XXZZ=            -74.4597 YYZZ=            -34.0987
 XXYZ=             -1.8292 YYXZ=              1.1944 ZZXY=              1.8198
 N-N= 1.779832129587D+02 E-N=-9.361540737726D+02  KE= 2.470091444737D+02
 No NMR shielding tensors so no spin-rotation constants.
 Leave Link  601 at Tue Jul  2 17:46:48 2024, MaxMem=  8053063680 cpu:               0.9 elap:               0.1
 (Enter /share/apps/g16.b01_avx2/g16/l701.exe)
 ... and contract with generalized density number  0.
 Compute integral first derivatives.
 R6Disp: Adding Grimme-D3 dispersion energy 1st derivatives to the gradient.
   1 Symmetry operations used in ECPInt.
 ECPInt:  NShTT=    3486 NPrTT=   10284 LenC2=    3461 LenP2D=    8588.
 LDataN:  DoStor=T MaxTD1= 7 Len=  274
 D1PCM: PCM CHGder 1st derivatives, ID1Alg=3 FixD1E=F DoIter=F DoCFld=F I1PDM=0.
 GePol: Maximum number of non-zero 1st derivatives   =     217
 Leave Link  701 at Tue Jul  2 17:46:48 2024, MaxMem=  8053063680 cpu:               4.3 elap:               0.3
 (Enter /share/apps/g16.b01_avx2/g16/l702.exe)
 L702 exits ... SP integral derivatives will be done elsewhere.
 Leave Link  702 at Tue Jul  2 17:46:48 2024, MaxMem=  8053063680 cpu:               0.2 elap:               0.0
 (Enter /share/apps/g16.b01_avx2/g16/l703.exe)
 Integral derivatives from FoFJK, PRISM(SPDF).
 Compute integral first derivatives, UseDBF=F ICtDFT=           0.
 Calling FoFJK, ICntrl=      2127 FMM=F ISym2X=0 I1Cent= 0 IOpClX= 0 NMat=1 NMatS=1 NMatT=0.
 FoFJK:  IHMeth= 1 ICntrl=    2127 DoSepK=F KAlg= 0 I1Cent=           0 FoldK=F
 IRaf=         0 NMat=       1 IRICut=       1 DoRegI=T DoRafI=F ISym2E= 0 IDoP0=0 IntGTp=1.
 FoFCou: FMM=F IPFlag=           0 FMFlag=      100000 FMFlg1=         800
         NFxFlg=           0 DoJE=F BraDBF=F KetDBF=F FulRan=T
         wScrn=  0.000000 ICntrl=      2127 IOpCl=  0 I1Cent=           0 NGrid=           0
         NMat0=    1 NMatS0=      1 NMatT0=    0 NMatD0=    1 NMtDS0=    0 NMtDT0=    0
 Symmetry not used in FoFCou.
 Leave Link  703 at Tue Jul  2 17:46:49 2024, MaxMem=  8053063680 cpu:              21.8 elap:               1.4
 (Enter /share/apps/g16.b01_avx2/g16/l716.exe)
 Dipole        =-1.63771328D-03-1.64615176D+00 5.80654281D-01
 ***** Axes restored to original set *****
 -------------------------------------------------------------------
 Center     Atomic                   Forces (Hartrees/Bohr)
 Number     Number              X              Y              Z
 -------------------------------------------------------------------
      1        6          -0.000516320   -0.039254991    0.004842882
      2        8           0.031946433    0.054661894    0.003132293
      3        7          -0.062489482   -0.016222157   -0.023259096
      4        1           0.003859799    0.014500289    0.000245786
      5        6           0.025292977   -0.025146456    0.016915600
      6        1           0.005772837    0.013372362    0.005145322
      7        1           0.002081259    0.001966089   -0.014932695
      8        1          -0.011744196   -0.003869873    0.002964971
      9        6          -0.003071377    0.014207441    0.011261261
     10        1          -0.000170587   -0.005917495   -0.015763633
     11        1           0.013369674    0.001087421    0.003955043
     12        1          -0.004331017   -0.009384523    0.005492264
 -------------------------------------------------------------------
 Cartesian Forces:  Max     0.062489482 RMS     0.019480186
 Leave Link  716 at Tue Jul  2 17:46:49 2024, MaxMem=  8053063680 cpu:               0.2 elap:               0.0
 (Enter /share/apps/g16.b01_avx2/g16/l103.exe)

 GradGradGradGradGradGradGradGradGradGradGradGradGradGradGradGradGradGrad
 Berny optimization.
 FormGI is forming the generalized inverse of G from B-inverse, IUseBI=4.
 Internal  Forces:  Max     0.063358655 RMS     0.015220223
 Search for a local minimum.
 Step number   1 out of a maximum of   55
 All quantities printed in internal units (Hartrees-Bohrs-Radians)
 RMS Force = .15220D-01 SwitMx=.10000D-02 MixMth= 1
 Mixed Optimization -- RFO/linear search
 Second derivative matrix not updated -- first step.
 ITU=  0
     Eigenvalues ---    0.00237   0.00448   0.00766   0.00766   0.03399
     Eigenvalues ---    0.07243   0.07243   0.07537   0.07537   0.11287
     Eigenvalues ---    0.16000   0.16000   0.16000   0.16000   0.16000
     Eigenvalues ---    0.16000   0.23464   0.25000   0.25000   0.28519
     Eigenvalues ---    0.35740   0.35740   0.37230   0.37230   0.37230
     Eigenvalues ---    0.37230   0.37230   0.37230   0.47688   0.80209
 RFO step:  Lambda=-2.56195348D-02 EMin= 2.36824135D-03
 Linear search not attempted -- first point.
 Iteration  1 RMS(Cart)=  0.09603305 RMS(Int)=  0.00540815
 Iteration  2 RMS(Cart)=  0.00881379 RMS(Int)=  0.00150917
 Iteration  3 RMS(Cart)=  0.00002535 RMS(Int)=  0.00150905
 Iteration  4 RMS(Cart)=  0.00000003 RMS(Int)=  0.00150905
 ITry= 1 IFail=0 DXMaxC= 2.48D-01 DCOld= 1.00D+10 DXMaxT= 3.00D-01 DXLimC= 3.00D+00 Rises=F
 Variable       Old X    -DE/DX   Delta X   Delta X   Delta X     New X
                                 (Linear)    (Quad)   (Total)
    R1        2.37803  -0.06336   0.00000  -0.07655  -0.07655   2.30148
    R2        2.77790  -0.05552   0.00000  -0.14495  -0.14495   2.63294
    R3        2.91018  -0.02406   0.00000  -0.07742  -0.07742   2.83276
    R4        1.88973   0.01283   0.00000   0.02553   0.02553   1.91525
    R5        2.77790   0.00098   0.00000   0.00255   0.00255   2.78045
    R6        2.02201   0.01508   0.00000   0.03791   0.03791   2.05991
    R7        2.02201   0.01510   0.00000   0.03795   0.03795   2.05995
    R8        2.02201   0.01243   0.00000   0.03123   0.03123   2.05324
    R9        2.02201   0.01615   0.00000   0.04058   0.04058   2.06258
   R10        2.02201   0.01393   0.00000   0.03501   0.03501   2.05701
   R11        2.02201   0.01169   0.00000   0.02937   0.02937   2.05138
    A1        2.09440   0.00639   0.00000   0.02320   0.02288   2.11728
    A2        2.09440   0.01073   0.00000   0.03892   0.03860   2.13299
    A3        2.09440  -0.01712   0.00000  -0.06212  -0.06244   2.03195
    A4        1.91063  -0.00781   0.00000  -0.00073  -0.00775   1.90288
    A5        1.91063   0.02380   0.00000   0.10710   0.10299   2.01363
    A6        1.91063   0.00061   0.00000   0.05440   0.05046   1.96110
    A7        1.91063   0.00527   0.00000   0.03166   0.03174   1.94237
    A8        1.91063  -0.00325   0.00000  -0.02137  -0.02147   1.88917
    A9        1.91063  -0.00337   0.00000  -0.01756  -0.01773   1.89290
   A10        1.91063  -0.00132   0.00000  -0.00832  -0.00817   1.90246
   A11        1.91063   0.00105   0.00000   0.01335   0.01335   1.92399
   A12        1.91063   0.00162   0.00000   0.00224   0.00187   1.91250
   A13        1.91063   0.00759   0.00000   0.04443   0.04438   1.95501
   A14        1.91063  -0.00297   0.00000  -0.01782  -0.01788   1.89276
   A15        1.91063  -0.00043   0.00000  -0.00402  -0.00420   1.90643
   A16        1.91063  -0.00136   0.00000  -0.00387  -0.00380   1.90683
   A17        1.91063  -0.00258   0.00000  -0.01028  -0.01044   1.90019
   A18        1.91063  -0.00026   0.00000  -0.00844  -0.00862   1.90201
    D1        2.61799   0.00522   0.00000   0.06667   0.06622   2.68422
    D2        0.52360  -0.00532   0.00000  -0.06510  -0.06493   0.45867
    D3       -0.52360   0.00383   0.00000   0.02037   0.02020  -0.50340
    D4       -2.61799  -0.00671   0.00000  -0.11140  -0.11095  -2.72895
    D5        2.61799   0.00025   0.00000  -0.01347  -0.01350   2.60450
    D6       -1.57080  -0.00013   0.00000  -0.01736  -0.01766  -1.58845
    D7        0.52360  -0.00220   0.00000  -0.03845  -0.03838   0.48522
    D8       -0.52360   0.00164   0.00000   0.03283   0.03298  -0.49062
    D9        1.57080   0.00126   0.00000   0.02894   0.02881   1.59961
   D10       -2.61799  -0.00081   0.00000   0.00784   0.00809  -2.60991
   D11        1.04720   0.00252   0.00000   0.04353   0.04543   1.09263
   D12        3.14159   0.00369   0.00000   0.05509   0.05679  -3.08480
   D13       -1.04720   0.00130   0.00000   0.03138   0.03319  -1.01401
   D14       -1.04720  -0.00286   0.00000  -0.05447  -0.05618  -1.10338
   D15        1.04720  -0.00169   0.00000  -0.04292  -0.04482   1.00238
   D16        3.14159  -0.00409   0.00000  -0.06663  -0.06842   3.07317
         Item               Value     Threshold  Converged?
 Maximum Force            0.063359     0.000450     NO 
 RMS     Force            0.015220     0.000300     NO 
 Maximum Displacement     0.248009     0.001800     NO 
 RMS     Displacement     0.099030     0.001200     NO 
 Predicted change in Energy=-1.428363D-02
 Lowest energy point so far.  Saving SCF results.
 GradGradGradGradGradGradGradGradGradGradGradGradGradGradGradGradGradGrad

 Leave Link  103 at Tue Jul  2 17:46:49 2024, MaxMem=  8053063680 cpu:               0.1 elap:               0.0
 (Enter /share/apps/g16.b01_avx2/g16/l202.exe)
                          Input orientation:                          
 ---------------------------------------------------------------------
 Center     Atomic      Atomic             Coordinates (Angstroms)
 Number     Number       Type             X           Y           Z
 ---------------------------------------------------------------------
      1          6           0        0.603573    0.781533    0.114536
      2          8           0       -0.007196   -0.271735    0.085351
      3          7           0        1.969921    0.818978    0.384644
      4          1           0        2.368473    1.647484   -0.041895
      5          6           0       -0.075423    2.104464   -0.074969
      6          1           0        0.431447    2.892812    0.481645
      7          1           0       -0.054293    2.349834   -1.136864
      8          1           0       -1.105893    2.012885    0.257118
      9          6           0        2.714617   -0.402011    0.038987
     10          1           0        2.681760   -0.611980   -1.031594
     11          1           0        3.750389   -0.272769    0.347792
     12          1           0        2.288856   -1.244359    0.575253
 ---------------------------------------------------------------------
                    Distance matrix (angstroms):
                    1          2          3          4          5
     1  C    0.000000
     2  O    1.217893   0.000000
     3  N    1.393293   2.277767   0.000000
     4  H    1.972109   3.056697   1.013509   0.000000
     5  C    1.499031   2.382578   2.459095   2.486474   0.000000
     6  H    2.149859   3.219288   2.584008   2.361569   1.090059
     7  H    2.111483   2.892862   2.959045   2.749918   1.090080
     8  H    2.111594   2.540891   3.301864   3.506301   1.086525
     9  C    2.421362   2.725324   1.471349   2.080093   3.752297
    10  H    2.752154   2.931521   2.135436   2.486529   3.987011
    11  H    3.326922   3.766739   2.088860   2.397690   4.524024
    12  H    2.675197   2.541231   2.096525   2.958035   4.150569
                    6          7          8          9         10
     6  H    0.000000
     7  H    1.774920   0.000000
     8  H    1.785524   1.778366   0.000000
     9  C    4.032949   4.077026   4.524997   0.000000
    10  H    4.431407   4.033535   4.785082   1.091472   0.000000
    11  H    4.588485   4.853643   5.368045   1.088525   1.777565
    12  H    4.535958   4.619515   4.715418   1.085543   1.770942
                   11         12
    11  H    0.000000
    12  H    1.769691   0.000000
 Stoichiometry    C3H7NO
 Framework group  C1[X(C3H7NO)]
 Deg. of freedom    30
 Full point group                 C1      NOp   1
 RotChk:  IX=0 Diff= 2.01D-02
 Largest Abelian subgroup         C1      NOp   1
 Largest concise Abelian subgroup C1      NOp   1
                         Standard orientation:                         
 ---------------------------------------------------------------------
 Center     Atomic      Atomic             Coordinates (Angstroms)
 Number     Number       Type             X           Y           Z
 ---------------------------------------------------------------------
      1          6           0       -0.481127    0.157432   -0.053135
      2          8           0       -0.371189    1.370116   -0.029171
      3          7           0        0.621804   -0.665427   -0.271568
      4          1           0        0.450157   -1.568364    0.155565
      5          6           0       -1.807013   -0.527633    0.087610
      6          1           0       -1.826840   -1.468355   -0.462733
      7          1           0       -1.975201   -0.731483    1.145169
      8          1           0       -2.580224    0.140311   -0.281893
      9          6           0        1.920346   -0.097215    0.123136
     10          1           0        1.971029    0.101688    1.195134
     11          1           0        2.702398   -0.804105   -0.148138
     12          1           0        2.082324    0.831867   -0.414427
 ---------------------------------------------------------------------
 Rotational constants (GHZ):           9.9296494           3.9365945           2.9715522
 Leave Link  202 at Tue Jul  2 17:46:49 2024, MaxMem=  8053063680 cpu:               0.0 elap:               0.0
 (Enter /share/apps/g16.b01_avx2/g16/l301.exe)
 Standard basis: def2TZVP (5D, 7F)
 Ernie: Thresh=  0.10000D-02 Tol=  0.10000D-05 Strict=F.
 There are   222 symmetry adapted cartesian basis functions of A   symmetry.
 There are   197 symmetry adapted basis functions of A   symmetry.
   197 basis functions,   311 primitive gaussians,   222 cartesian basis functions
    20 alpha electrons       20 beta electrons
       nuclear repulsion energy       180.6126063485 Hartrees.
 IExCor= 1009 DFT=T Ex+Corr=PBE1PBE ExCW=0 ScaHFX=  0.250000
 ScaDFX=  0.750000  0.750000  1.000000  1.000000 ScalE2=  1.000000  1.000000
 IRadAn=  99590 IRanWt=     -1 IRanGd=            0 ICorTp=0 IEmpDi=131
 NAtoms=   12 NActive=   12 NUniq=   12 SFac= 1.00D+00 NAtFMM=   60 NAOKFM=F Big=F
 Integral buffers will be    131072 words long.
 Raffenetti 2 integral format.
 Two-electron integral symmetry is turned on.
 R6Disp:  Grimme-D3 Dispersion energy=       -0.0036103666 Hartrees.
 Nuclear repulsion after empirical dispersion term =      180.6089959818 Hartrees.
 ------------------------------------------------------------------------------
 Polarizable Continuum Model (PCM)
 =================================
 Model                : PCM.
 Atomic radii         : UFF (Universal Force Field).
 Polarization charges : Total charges.
 Charge compensation  : None.
 Solution method      : On-the-fly selection.
 Cavity type          : Scaled VdW (van der Waals Surface) (Alpha=1.100).
 Cavity algorithm     : GePol (No added spheres)
                        Default sphere list used, NSphG=   12.
                        Lebedev-Laikov grids with approx.  5.0 points / Ang**2.
                        Smoothing algorithm: York/Karplus (Gamma=1.0000).
                        Polarization charges: spherical gaussians, with
                                              point-specific exponents (IZeta= 3).
                        Self-potential: point-specific (ISelfS= 7).
                        Self-field    : sphere-specific E.n sum rule (ISelfD= 2).
 1st derivatives      : Analytical E(r).r(x)/FMM algorithm (CHGder, D1EAlg=3).
                        Cavity 1st derivative terms included.
 Solvent              : Water, Eps=  78.355300 Eps(inf)=   1.777849
 ------------------------------------------------------------------------------
 Spheres list:
 ISph  on   Nord     Re0    Alpha      Xe            Ye            Ze
    1   C      1    1.9255  1.100     -0.481127      0.157432     -0.053135
    2   O      2    1.7500  1.100     -0.371189      1.370116     -0.029171
    3   N      3    1.8300  1.100      0.621804     -0.665427     -0.271568
    4   H      4    1.4430  1.100      0.450157     -1.568364      0.155565
    5   C      5    1.9255  1.100     -1.807013     -0.527633      0.087610
    6   H      6    1.4430  1.100     -1.826840     -1.468355     -0.462733
    7   H      7    1.4430  1.100     -1.975201     -0.731483      1.145169
    8   H      8    1.4430  1.100     -2.580224      0.140311     -0.281893
    9   C      9    1.9255  1.100      1.920346     -0.097215      0.123136
   10   H     10    1.4430  1.100      1.971029      0.101688      1.195134
   11   H     11    1.4430  1.100      2.702398     -0.804105     -0.148138
   12   H     12    1.4430  1.100      2.082324      0.831867     -0.414427
 ------------------------------------------------------------------------------
 GePol: Number of generator spheres                  =      12
 GePol: Total number of spheres                      =      12
 GePol: Number of exposed spheres                    =      12 (100.00%)
 GePol: Number of points                             =    1040
 GePol: Average weight of points                     =       0.14
 GePol: Minimum weight of points                     =   0.15D-08
 GePol: Maximum weight of points                     =    0.20577
 GePol: Number of points with low weight             =      52
 GePol: Fraction of low-weight points (<1% of avg)   =       5.00%
 GePol: Cavity surface area                          =    140.408 Ang**2
 GePol: Cavity volume                                =    125.821 Ang**3
 Leave Link  301 at Tue Jul  2 17:46:49 2024, MaxMem=  8053063680 cpu:               0.4 elap:               0.0
 (Enter /share/apps/g16.b01_avx2/g16/l302.exe)
 NPDir=0 NMtPBC=     1 NCelOv=     1 NCel=       1 NClECP=     1 NCelD=      1
         NCelK=      1 NCelE2=     1 NClLst=     1 CellRange=     0.0.
 One-electron integrals computed using PRISM.
 One-electron integral symmetry used in STVInt
   1 Symmetry operations used in ECPInt.
 ECPInt:  NShTT=    3486 NPrTT=   10284 LenC2=    3460 LenP2D=    8609.
 LDataN:  DoStor=T MaxTD1= 6 Len=  172
 NBasis=   197 RedAO= T EigKep=  3.61D-04  NBF=   197
 NBsUse=   197 1.00D-06 EigRej= -1.00D+00 NBFU=   197
 Precomputing XC quadrature grid using
 IXCGrd= 4 IRadAn=       99590 IRanWt=          -1 IRanGd=           0 AccXCQ= 0.00D+00.
 Generated NRdTot=       0 NPtTot=           0 NUsed=           0 NTot=          32
 NSgBfM=   221   221   221   221   221 MxSgAt=    12 MxSgA2=    12.
 Leave Link  302 at Tue Jul  2 17:46:49 2024, MaxMem=  8053063680 cpu:               1.3 elap:               0.1
 (Enter /share/apps/g16.b01_avx2/g16/l303.exe)
 DipDrv:  MaxL=1.
 Leave Link  303 at Tue Jul  2 17:46:49 2024, MaxMem=  8053063680 cpu:               0.3 elap:               0.0
 (Enter /share/apps/g16.b01_avx2/g16/l401.exe)
 Initial guess from the checkpoint file:  "/scratch/Gau-317605.chk"
 B after Tr=    -0.000000    0.000000    0.000000
         Rot=    0.999978   -0.004750   -0.004693   -0.000078 Ang=  -0.77 deg.
 Guess basis will be translated and rotated to current coordinates.
 JPrj=2 DoOrth=T DoCkMO=T.
 Generating alternative initial guess.
 ExpMin= 9.52D-02 ExpMax= 2.70D+04 ExpMxC= 9.22D+02 IAcc=4 IRadAn=    199590 AccDes= 0.00D+00
 Harris functional with IExCor= 1009 and IRadAn=  199590 diagonalized for initial guess.
 HarFok:  IExCor= 1009 AccDes= 0.00D+00 IRadAn=    199590 IDoV= 1 UseB2=F ITyADJ=14
 ICtDFT=  3500011 ScaDFX=  1.000000  1.000000  1.000000  1.000000
 FoFCou: FMM=F IPFlag=           0 FMFlag=      100000 FMFlg1=           0
         NFxFlg=           0 DoJE=T BraDBF=F KetDBF=T FulRan=T
         wScrn=  0.000000 ICntrl=       500 IOpCl=  0 I1Cent=   200000004 NGrid=           0
         NMat0=    1 NMatS0=      1 NMatT0=    0 NMatD0=    1 NMtDS0=    0 NMtDT0=    0
 Petite list used in FoFCou.
 Harris En= -248.431804932334    
 Leave Link  401 at Tue Jul  2 17:46:50 2024, MaxMem=  8053063680 cpu:               7.3 elap:               0.5
 (Enter /share/apps/g16.b01_avx2/g16/l502.exe)
 Keep R1 ints in memory in canonical form, NReq=207013738.
 FoFCou: FMM=F IPFlag=           0 FMFlag=           0 FMFlg1=           0
         NFxFlg=           0 DoJE=F BraDBF=F KetDBF=F FulRan=T
         wScrn=  0.000000 ICntrl=       600 IOpCl=  0 I1Cent=           0 NGrid=           0
         NMat0=    1 NMatS0=  19503 NMatT0=    0 NMatD0=    1 NMtDS0=    0 NMtDT0=    0
 Symmetry not used in FoFCou.
 Two-electron integral symmetry not used.
 Closed shell SCF:
 Using DIIS extrapolation, IDIIS=  1040.
 NGot=  8053063680 LenX=  7862766154 LenY=  7862716429
 Requested convergence on RMS density matrix=1.00D-08 within 128 cycles.
 Requested convergence on MAX density matrix=1.00D-06.
 Requested convergence on             energy=1.00D-06.
 No special actions if energy rises.

 Cycle   1  Pass 1  IDiag  1:
 Inv3:  Mode=1 IEnd=     3244800.
 Iteration    1 A*A^-1 deviation from unit magnitude is 3.33D-15 for    746.
 Iteration    1 A*A^-1 deviation from orthogonality  is 1.80D-15 for    929    210.
 Iteration    1 A^-1*A deviation from unit magnitude is 3.11D-15 for    746.
 Iteration    1 A^-1*A deviation from orthogonality  is 1.78D-15 for    778    343.
 E= -248.330689982368    
 DIIS: error= 6.10D-03 at cycle   1 NSaved=   1.
 NSaved= 1 IEnMin= 1 EnMin= -248.330689982368     IErMin= 1 ErrMin= 6.10D-03
 ErrMax= 6.10D-03  0.00D+00 EMaxC= 1.00D-01 BMatC= 9.86D-03 BMatP= 9.86D-03
 IDIUse=3 WtCom= 9.39D-01 WtEn= 6.10D-02
 Coeff-Com:  0.100D+01
 Coeff-En:   0.100D+01
 Coeff:      0.100D+01
 Gap=     0.667 Goal=   None    Shift=    0.000
 GapD=    0.667 DampG=2.000 DampE=1.000 DampFc=2.0000 IDamp=-1.
 RMSDP=5.46D-04 MaxDP=9.65D-03              OVMax= 3.41D-02

 Cycle   2  Pass 1  IDiag  1:
 E= -248.342451057360     Delta-E=       -0.011761074992 Rises=F Damp=F
 DIIS: error= 1.33D-03 at cycle   2 NSaved=   2.
 NSaved= 2 IEnMin= 2 EnMin= -248.342451057360     IErMin= 2 ErrMin= 1.33D-03
 ErrMax= 1.33D-03  0.00D+00 EMaxC= 1.00D-01 BMatC= 7.60D-04 BMatP= 9.86D-03
 IDIUse=3 WtCom= 9.87D-01 WtEn= 1.33D-02
 Coeff-Com:  0.735D-01 0.927D+00
 Coeff-En:   0.000D+00 0.100D+01
 Coeff:      0.725D-01 0.927D+00
 Gap=     0.287 Goal=   None    Shift=    0.000
 RMSDP=2.34D-04 MaxDP=6.57D-03 DE=-1.18D-02 OVMax= 1.16D-02

 Cycle   3  Pass 1  IDiag  1:
 E= -248.342586166727     Delta-E=       -0.000135109367 Rises=F Damp=F
 DIIS: error= 1.36D-03 at cycle   3 NSaved=   3.
 NSaved= 3 IEnMin= 3 EnMin= -248.342586166727     IErMin= 2 ErrMin= 1.33D-03
 ErrMax= 1.36D-03  0.00D+00 EMaxC= 1.00D-01 BMatC= 6.58D-04 BMatP= 7.60D-04
 IDIUse=3 WtCom= 9.86D-01 WtEn= 1.36D-02
 Coeff-Com: -0.318D-01 0.489D+00 0.543D+00
 Coeff-En:   0.000D+00 0.444D+00 0.556D+00
 Coeff:     -0.313D-01 0.488D+00 0.543D+00
 Gap=     0.286 Goal=   None    Shift=    0.000
 RMSDP=1.27D-04 MaxDP=3.57D-03 DE=-1.35D-04 OVMax= 7.39D-03

 Cycle   4  Pass 1  IDiag  1:
 E= -248.343151292326     Delta-E=       -0.000565125599 Rises=F Damp=F
 DIIS: error= 2.18D-04 at cycle   4 NSaved=   4.
 NSaved= 4 IEnMin= 4 EnMin= -248.343151292326     IErMin= 4 ErrMin= 2.18D-04
 ErrMax= 2.18D-04  0.00D+00 EMaxC= 1.00D-01 BMatC= 2.51D-05 BMatP= 6.58D-04
 IDIUse=3 WtCom= 9.98D-01 WtEn= 2.18D-03
 Coeff-Com: -0.182D-01 0.220D+00 0.284D+00 0.515D+00
 Coeff-En:   0.000D+00 0.000D+00 0.000D+00 0.100D+01
 Coeff:     -0.181D-01 0.219D+00 0.283D+00 0.516D+00
 Gap=     0.285 Goal=   None    Shift=    0.000
 RMSDP=2.34D-05 MaxDP=7.68D-04 DE=-5.65D-04 OVMax= 1.83D-03

 Cycle   5  Pass 1  IDiag  1:
 E= -248.343166479888     Delta-E=       -0.000015187562 Rises=F Damp=F
 DIIS: error= 1.22D-04 at cycle   5 NSaved=   5.
 NSaved= 5 IEnMin= 5 EnMin= -248.343166479888     IErMin= 5 ErrMin= 1.22D-04
 ErrMax= 1.22D-04  0.00D+00 EMaxC= 1.00D-01 BMatC= 4.89D-06 BMatP= 2.51D-05
 IDIUse=3 WtCom= 9.99D-01 WtEn= 1.22D-03
 Coeff-Com: -0.203D-02 0.713D-02 0.372D-01 0.320D+00 0.637D+00
 Coeff-En:   0.000D+00 0.000D+00 0.000D+00 0.177D+00 0.823D+00
 Coeff:     -0.203D-02 0.712D-02 0.372D-01 0.320D+00 0.638D+00
 Gap=     0.286 Goal=   None    Shift=    0.000
 RMSDP=6.92D-06 MaxDP=2.37D-04 DE=-1.52D-05 OVMax= 6.49D-04

 Cycle   6  Pass 1  IDiag  1:
 E= -248.343170305290     Delta-E=       -0.000003825402 Rises=F Damp=F
 DIIS: error= 1.20D-05 at cycle   6 NSaved=   6.
 NSaved= 6 IEnMin= 6 EnMin= -248.343170305290     IErMin= 6 ErrMin= 1.20D-05
 ErrMax= 1.20D-05  0.00D+00 EMaxC= 1.00D-01 BMatC= 7.52D-08 BMatP= 4.89D-06
 IDIUse=1 WtCom= 1.00D+00 WtEn= 0.00D+00
 Coeff-Com:  0.642D-04-0.738D-02 0.112D-02 0.897D-01 0.224D+00 0.692D+00
 Coeff:      0.642D-04-0.738D-02 0.112D-02 0.897D-01 0.224D+00 0.692D+00
 Gap=     0.286 Goal=   None    Shift=    0.000
 RMSDP=1.53D-06 MaxDP=3.43D-05 DE=-3.83D-06 OVMax= 1.41D-04

 Cycle   7  Pass 1  IDiag  1:
 E= -248.343170367655     Delta-E=       -0.000000062365 Rises=F Damp=F
 DIIS: error= 6.70D-06 at cycle   7 NSaved=   7.
 NSaved= 7 IEnMin= 7 EnMin= -248.343170367655     IErMin= 7 ErrMin= 6.70D-06
 ErrMax= 6.70D-06  0.00D+00 EMaxC= 1.00D-01 BMatC= 1.86D-08 BMatP= 7.52D-08
 IDIUse=1 WtCom= 1.00D+00 WtEn= 0.00D+00
 Coeff-Com:  0.246D-03-0.485D-02-0.403D-02 0.564D-02 0.413D-01 0.359D+00
 Coeff-Com:  0.602D+00
 Coeff:      0.246D-03-0.485D-02-0.403D-02 0.564D-02 0.413D-01 0.359D+00
 Coeff:      0.602D+00
 Gap=     0.286 Goal=   None    Shift=    0.000
 RMSDP=6.29D-07 MaxDP=1.66D-05 DE=-6.24D-08 OVMax= 4.36D-05

 Cycle   8  Pass 1  IDiag  1:
 E= -248.343170385192     Delta-E=       -0.000000017537 Rises=F Damp=F
 DIIS: error= 1.81D-06 at cycle   8 NSaved=   8.
 NSaved= 8 IEnMin= 8 EnMin= -248.343170385192     IErMin= 8 ErrMin= 1.81D-06
 ErrMax= 1.81D-06  0.00D+00 EMaxC= 1.00D-01 BMatC= 1.01D-09 BMatP= 1.86D-08
 IDIUse=1 WtCom= 1.00D+00 WtEn= 0.00D+00
 Coeff-Com:  0.725D-04-0.670D-03-0.135D-02-0.913D-02-0.109D-01 0.436D-01
 Coeff-Com:  0.203D+00 0.775D+00
 Coeff:      0.725D-04-0.670D-03-0.135D-02-0.913D-02-0.109D-01 0.436D-01
 Coeff:      0.203D+00 0.775D+00
 Gap=     0.286 Goal=   None    Shift=    0.000
 RMSDP=2.04D-07 MaxDP=5.05D-06 DE=-1.75D-08 OVMax= 2.73D-05

 Cycle   9  Pass 1  IDiag  1:
 E= -248.343170386372     Delta-E=       -0.000000001180 Rises=F Damp=F
 DIIS: error= 8.16D-07 at cycle   9 NSaved=   9.
 NSaved= 9 IEnMin= 9 EnMin= -248.343170386372     IErMin= 9 ErrMin= 8.16D-07
 ErrMax= 8.16D-07  0.00D+00 EMaxC= 1.00D-01 BMatC= 1.99D-10 BMatP= 1.01D-09
 IDIUse=1 WtCom= 1.00D+00 WtEn= 0.00D+00
 Coeff-Com:  0.114D-04 0.235D-03-0.203D-03-0.518D-02-0.103D-01-0.229D-01
 Coeff-Com:  0.213D-01 0.360D+00 0.657D+00
 Coeff:      0.114D-04 0.235D-03-0.203D-03-0.518D-02-0.103D-01-0.229D-01
 Coeff:      0.213D-01 0.360D+00 0.657D+00
 Gap=     0.286 Goal=   None    Shift=    0.000
 RMSDP=6.90D-08 MaxDP=1.60D-06 DE=-1.18D-09 OVMax= 6.52D-06

 Cycle  10  Pass 1  IDiag  1:
 E= -248.343170386579     Delta-E=       -0.000000000207 Rises=F Damp=F
 DIIS: error= 1.59D-07 at cycle  10 NSaved=  10.
 NSaved=10 IEnMin=10 EnMin= -248.343170386579     IErMin=10 ErrMin= 1.59D-07
 ErrMax= 1.59D-07  0.00D+00 EMaxC= 1.00D-01 BMatC= 6.01D-12 BMatP= 1.99D-10
 IDIUse=1 WtCom= 1.00D+00 WtEn= 0.00D+00
 Coeff-Com: -0.351D-05 0.137D-03 0.780D-04-0.570D-03-0.195D-02-0.102D-01
 Coeff-Com: -0.115D-01 0.322D-01 0.174D+00 0.818D+00
 Coeff:     -0.351D-05 0.137D-03 0.780D-04-0.570D-03-0.195D-02-0.102D-01
 Coeff:     -0.115D-01 0.322D-01 0.174D+00 0.818D+00
 Gap=     0.286 Goal=   None    Shift=    0.000
 RMSDP=1.58D-08 MaxDP=3.96D-07 DE=-2.07D-10 OVMax= 1.94D-06

 Cycle  11  Pass 1  IDiag  1:
 E= -248.343170386588     Delta-E=       -0.000000000009 Rises=F Damp=F
 DIIS: error= 3.67D-08 at cycle  11 NSaved=  11.
 NSaved=11 IEnMin=11 EnMin= -248.343170386588     IErMin=11 ErrMin= 3.67D-08
 ErrMax= 3.67D-08  0.00D+00 EMaxC= 1.00D-01 BMatC= 3.27D-13 BMatP= 6.01D-12
 IDIUse=1 WtCom= 1.00D+00 WtEn= 0.00D+00
 Coeff-Com: -0.185D-05 0.270D-04 0.328D-04 0.101D-03-0.303D-04-0.177D-02
 Coeff-Com: -0.411D-02-0.882D-02 0.155D-01 0.226D+00 0.773D+00
 Coeff:     -0.185D-05 0.270D-04 0.328D-04 0.101D-03-0.303D-04-0.177D-02
 Coeff:     -0.411D-02-0.882D-02 0.155D-01 0.226D+00 0.773D+00
 Gap=     0.286 Goal=   None    Shift=    0.000
 RMSDP=3.81D-09 MaxDP=8.81D-08 DE=-8.58D-12 OVMax= 2.74D-07

 Error on total polarization charges =  0.00961
 SCF Done:  E(RPBE1PBE) =  -248.343170387     A.U. after   11 cycles
            NFock= 11  Conv=0.38D-08     -V/T= 2.0048
 KE= 2.471671373827D+02 PE=-9.415644270595D+02 EE= 2.654451233084D+02
 Leave Link  502 at Tue Jul  2 17:46:55 2024, MaxMem=  8053063680 cpu:              66.8 elap:               5.0
 (Enter /share/apps/g16.b01_avx2/g16/l701.exe)
 ... and contract with generalized density number  0.
 Compute integral first derivatives.
 R6Disp: Adding Grimme-D3 dispersion energy 1st derivatives to the gradient.
   1 Symmetry operations used in ECPInt.
 ECPInt:  NShTT=    3486 NPrTT=   10284 LenC2=    3460 LenP2D=    8609.
 LDataN:  DoStor=T MaxTD1= 7 Len=  274
 D1PCM: PCM CHGder 1st derivatives, ID1Alg=3 FixD1E=F DoIter=F DoCFld=F I1PDM=0.
 GePol: Maximum number of non-zero 1st derivatives   =     213
 Leave Link  701 at Tue Jul  2 17:46:55 2024, MaxMem=  8053063680 cpu:               4.3 elap:               0.3
 (Enter /share/apps/g16.b01_avx2/g16/l702.exe)
 L702 exits ... SP integral derivatives will be done elsewhere.
 Leave Link  702 at Tue Jul  2 17:46:55 2024, MaxMem=  8053063680 cpu:               0.2 elap:               0.0
 (Enter /share/apps/g16.b01_avx2/g16/l703.exe)
 Integral derivatives from FoFJK, PRISM(SPDF).
 Compute integral first derivatives, UseDBF=F ICtDFT=           0.
 Calling FoFJK, ICntrl=      2127 FMM=F ISym2X=0 I1Cent= 0 IOpClX= 0 NMat=1 NMatS=1 NMatT=0.
 FoFJK:  IHMeth= 1 ICntrl=    2127 DoSepK=F KAlg= 0 I1Cent=           0 FoldK=F
 IRaf=         0 NMat=       1 IRICut=       1 DoRegI=T DoRafI=F ISym2E= 0 IDoP0=0 IntGTp=1.
 FoFCou: FMM=F IPFlag=           0 FMFlag=      100000 FMFlg1=         800
         NFxFlg=           0 DoJE=F BraDBF=F KetDBF=F FulRan=T
         wScrn=  0.000000 ICntrl=      2127 IOpCl=  0 I1Cent=           0 NGrid=           0
         NMat0=    1 NMatS0=      1 NMatT0=    0 NMatD0=    1 NMtDS0=    0 NMtDT0=    0
 Symmetry not used in FoFCou.
 Leave Link  703 at Tue Jul  2 17:46:57 2024, MaxMem=  8053063680 cpu:              21.6 elap:               1.4
 (Enter /share/apps/g16.b01_avx2/g16/l716.exe)
 Dipole        = 1.59275494D-01-1.70923473D+00 4.73340843D-01
 ***** Axes restored to original set *****
 -------------------------------------------------------------------
 Center     Atomic                   Forces (Hartrees/Bohr)
 Number     Number              X              Y              Z
 -------------------------------------------------------------------
      1        6           0.012148668   -0.006468530    0.012029840
      2        8          -0.001798036   -0.000523090   -0.001972009
      3        7          -0.014372973   -0.004751220   -0.024641493
      4        1           0.004412679    0.000902359    0.006921533
      5        6           0.004185078   -0.001081913    0.003696151
      6        1          -0.000607560    0.001625053   -0.000991716
      7        1          -0.001057892    0.001658954   -0.001662621
      8        1          -0.001573903    0.001317216   -0.000997176
      9        6          -0.000804533    0.008899438    0.007973887
     10        1          -0.000616440   -0.000306589   -0.001250936
     11        1           0.000678184   -0.000262821    0.000101436
     12        1          -0.000593273   -0.001008856    0.000793105
 -------------------------------------------------------------------
 Cartesian Forces:  Max     0.024641493 RMS     0.006329576
 Leave Link  716 at Tue Jul  2 17:46:57 2024, MaxMem=  8053063680 cpu:               0.2 elap:               0.0
 (Enter /share/apps/g16.b01_avx2/g16/l103.exe)

 GradGradGradGradGradGradGradGradGradGradGradGradGradGradGradGradGradGrad
 Berny optimization.
 Using GEDIIS/GDIIS optimizer.
 FormGI is forming the generalized inverse of G from B-inverse, IUseBI=4.
 Internal  Forces:  Max     0.012940242 RMS     0.003277939
 Search for a local minimum.
 Step number   2 out of a maximum of   55
 All quantities printed in internal units (Hartrees-Bohrs-Radians)
 RMS Force = .32779D-02 SwitMx=.10000D-02 MixMth= 1
 Mixed Optimization -- RFO/linear search
 Update second derivatives using D2CorX and points    1    2
 DE= -1.55D-02 DEPred=-1.43D-02 R= 1.09D+00
 TightC=F SS=  1.41D+00  RLast= 3.26D-01 DXNew= 5.0454D-01 9.7802D-01
 Trust test= 1.09D+00 RLast= 3.26D-01 DXMaxT set to 5.05D-01
 ITU=  1  0
 Use linear search instead of GDIIS.
     Eigenvalues ---    0.00237   0.00460   0.00766   0.00767   0.02405
     Eigenvalues ---    0.07075   0.07254   0.07441   0.07657   0.12590
     Eigenvalues ---    0.15848   0.16000   0.16000   0.16000   0.16000
     Eigenvalues ---    0.16294   0.22196   0.24325   0.25075   0.29497
     Eigenvalues ---    0.32084   0.36363   0.37215   0.37230   0.37230
     Eigenvalues ---    0.37230   0.37230   0.38414   0.47907   0.83864
 RFO step:  Lambda=-4.50108023D-03 EMin= 2.36823731D-03
 Quartic linear search produced a step of  0.18413.
 Iteration  1 RMS(Cart)=  0.04377907 RMS(Int)=  0.00394283
 Iteration  2 RMS(Cart)=  0.00541280 RMS(Int)=  0.00284023
 Iteration  3 RMS(Cart)=  0.00000897 RMS(Int)=  0.00284022
 Iteration  4 RMS(Cart)=  0.00000004 RMS(Int)=  0.00284022
 ITry= 1 IFail=0 DXMaxC= 1.57D-01 DCOld= 1.00D+10 DXMaxT= 5.05D-01 DXLimC= 3.00D+00 Rises=F
 Variable       Old X    -DE/DX   Delta X   Delta X   Delta X     New X
                                 (Linear)    (Quad)   (Total)
    R1        2.30148   0.00140  -0.01409   0.00665  -0.00745   2.29404
    R2        2.63294  -0.01294  -0.02669  -0.03129  -0.05798   2.57496
    R3        2.83276   0.00268  -0.01426   0.01730   0.00304   2.83580
    R4        1.91525  -0.00044   0.00470  -0.00284   0.00186   1.91712
    R5        2.78045  -0.00855   0.00047  -0.02809  -0.02762   2.75283
    R6        2.05991   0.00038   0.00698  -0.00161   0.00536   2.06528
    R7        2.05995   0.00198   0.00699   0.00338   0.01036   2.07032
    R8        2.05324   0.00107   0.00575   0.00104   0.00679   2.06003
    R9        2.06258   0.00130   0.00747   0.00105   0.00853   2.07111
   R10        2.05701   0.00064   0.00645  -0.00059   0.00586   2.06287
   R11        2.05138   0.00141   0.00541   0.00224   0.00765   2.05902
    A1        2.11728   0.00475   0.00421   0.02232   0.02271   2.13999
    A2        2.13299   0.00097   0.00711   0.00327   0.00670   2.13969
    A3        2.03195  -0.00569  -0.01150  -0.01876  -0.03400   1.99796
    A4        1.90288   0.00186  -0.00143   0.08297   0.07139   1.97427
    A5        2.01363   0.00653   0.01896   0.05022   0.06038   2.07400
    A6        1.96110  -0.00141   0.00929   0.03923   0.03776   1.99886
    A7        1.94237   0.00216   0.00584   0.01367   0.01938   1.96175
    A8        1.88917   0.00131  -0.00395   0.00957   0.00557   1.89474
    A9        1.89290   0.00190  -0.00327   0.01617   0.01273   1.90563
   A10        1.90246  -0.00192  -0.00150  -0.01395  -0.01548   1.88699
   A11        1.92399  -0.00128   0.00246  -0.00641  -0.00420   1.91979
   A12        1.91250  -0.00217   0.00034  -0.01919  -0.01893   1.89357
   A13        1.95501  -0.00046   0.00817  -0.00885  -0.00070   1.95431
   A14        1.89276   0.00073  -0.00329   0.00865   0.00535   1.89810
   A15        1.90643  -0.00030  -0.00077  -0.00256  -0.00337   1.90306
   A16        1.90683   0.00015  -0.00070   0.00299   0.00230   1.90913
   A17        1.90019   0.00004  -0.00192  -0.00136  -0.00333   1.89686
   A18        1.90201  -0.00014  -0.00159   0.00137  -0.00025   1.90176
    D1        2.68422   0.00158   0.01219  -0.02603  -0.01213   2.67208
    D2        0.45867  -0.00331  -0.01196  -0.19127  -0.20576   0.25291
    D3       -0.50340   0.00236   0.00372   0.13798   0.14423  -0.35917
    D4       -2.72895  -0.00254  -0.02043  -0.02726  -0.04940  -2.77835
    D5        2.60450   0.00089  -0.00248   0.09208   0.08928   2.69377
    D6       -1.58845   0.00066  -0.00325   0.08925   0.08557  -1.50288
    D7        0.48522  -0.00013  -0.00707   0.08077   0.07324   0.55846
    D8       -0.49062  -0.00001   0.00607  -0.07407  -0.06751  -0.55814
    D9        1.59961  -0.00023   0.00531  -0.07690  -0.07122   1.52839
   D10       -2.60991  -0.00102   0.00149  -0.08538  -0.08355  -2.69346
   D11        1.09263   0.00300   0.00836   0.08114   0.09041   1.18303
   D12       -3.08480   0.00338   0.01046   0.08510   0.09643  -2.98837
   D13       -1.01401   0.00346   0.00611   0.09030   0.09730  -0.91671
   D14       -1.10338  -0.00389  -0.01035  -0.11189  -0.12310  -1.22648
   D15        1.00238  -0.00351  -0.00825  -0.10793  -0.11708   0.88530
   D16        3.07317  -0.00343  -0.01260  -0.10273  -0.11621   2.95696
         Item               Value     Threshold  Converged?
 Maximum Force            0.012940     0.000450     NO 
 RMS     Force            0.003278     0.000300     NO 
 Maximum Displacement     0.156804     0.001800     NO 
 RMS     Displacement     0.043424     0.001200     NO 
 Predicted change in Energy=-3.591605D-03
 Lowest energy point so far.  Saving SCF results.
 GradGradGradGradGradGradGradGradGradGradGradGradGradGradGradGradGradGrad

 Leave Link  103 at Tue Jul  2 17:46:57 2024, MaxMem=  8053063680 cpu:               0.1 elap:               0.0
 (Enter /share/apps/g16.b01_avx2/g16/l202.exe)
                          Input orientation:                          
 ---------------------------------------------------------------------
 Center     Atomic      Atomic             Coordinates (Angstroms)
 Number     Number       Type             X           Y           Z
 ---------------------------------------------------------------------
      1          6           0        0.585237    0.758618    0.137319
      2          8           0       -0.026630   -0.284463    0.031113
      3          7           0        1.937154    0.803546    0.301666
      4          1           0        2.352506    1.660935   -0.047000
      5          6           0       -0.063066    2.098874   -0.050675
      6          1           0        0.457022    2.892766    0.491236
      7          1           0       -0.046862    2.347521   -1.117527
      8          1           0       -1.101700    2.043348    0.275701
      9          6           0        2.717352   -0.397735    0.036540
     10          1           0        2.715435   -0.661514   -1.027225
     11          1           0        3.744267   -0.229117    0.366178
     12          1           0        2.295515   -1.227643    0.602677
 ---------------------------------------------------------------------
                    Distance matrix (angstroms):
                    1          2          3          4          5
     1  C    0.000000
     2  O    1.213952   0.000000
     3  N    1.362611   2.261286   0.000000
     4  H    1.992834   3.074242   1.014496   0.000000
     5  C    1.500641   2.385018   2.408921   2.454953   0.000000
     6  H    2.167091   3.246601   2.567405   2.323782   1.092897
     7  H    2.121037   2.871780   2.886917   2.715583   1.095564
     8  H    2.124955   2.575714   3.282136   3.490259   1.090121
     9  C    2.427596   2.746325   1.456735   2.092419   3.737832
    10  H    2.812593   2.963304   2.125576   2.546827   4.036516
    11  H    3.317750   3.786159   2.082357   2.383278   4.482086
    12  H    2.662112   2.570726   2.084408   2.961285   4.129829
                    6          7          8          9         10
     6  H    0.000000
     7  H    1.771810   0.000000
     8  H    1.788178   1.773778   0.000000
     9  C    4.017865   4.063149   4.538859   0.000000
    10  H    4.476501   4.085673   4.856378   1.095984   0.000000
    11  H    4.535171   4.817997   5.353099   1.091626   1.785226
    12  H    4.513341   4.607345   4.727299   1.089589   1.775786
                   11         12
    11  H    0.000000
    12  H    1.775349   0.000000
 Stoichiometry    C3H7NO
 Framework group  C1[X(C3H7NO)]
 Deg. of freedom    30
 Full point group                 C1      NOp   1
 RotChk:  IX=0 Diff= 2.01D-02
 Largest Abelian subgroup         C1      NOp   1
 Largest concise Abelian subgroup C1      NOp   1
                         Standard orientation:                         
 ---------------------------------------------------------------------
 Center     Atomic      Atomic             Coordinates (Angstroms)
[...]
    D3       -0.00608   0.00000   0.00000   0.00943   0.00943   0.00335
    D4       -3.13577  -0.00000   0.00000  -0.00722  -0.00722   3.14019
    D5        3.11678   0.00000   0.00000   0.02752   0.02752  -3.13889
    D6       -1.04515   0.00001   0.00000   0.02882   0.02882  -1.01633
    D7        0.99333  -0.00000   0.00000   0.02860   0.02860   1.02194
    D8       -0.02589   0.00000   0.00000   0.02833   0.02833   0.00245
    D9        2.09537   0.00001   0.00000   0.02963   0.02963   2.12500
   D10       -2.14933   0.00000   0.00000   0.02942   0.02942  -2.11992
   D11        1.07240  -0.00000   0.00000  -0.04073  -0.04074   1.03167
   D12       -3.11777  -0.00000   0.00000  -0.04219  -0.04219   3.12322
   D13       -1.02656   0.00001   0.00000  -0.04091  -0.04091  -1.06747
   D14       -2.05730  -0.00001   0.00000  -0.05737  -0.05737  -2.11467
   D15        0.03571  -0.00001   0.00000  -0.05882  -0.05882  -0.02311
   D16        2.12692   0.00000   0.00000  -0.05754  -0.05754   2.06938
         Item               Value     Threshold  Converged?
 Maximum Force            0.000112     0.000450     YES
 RMS     Force            0.000034     0.000300     YES
 Maximum Displacement     0.065109     0.001800     NO 
 RMS     Displacement     0.020366     0.001200     NO 
 Predicted change in Energy=-7.059293D-07
                           ----------------------------
                           ! Non-Optimized Parameters !
                           ! (Angstroms and Degrees)  !
 --------------------------                            --------------------------
 ! Name  Definition              Value          Derivative Info.                !
 --------------------------------------------------------------------------------
 ! R1    R(1,2)                  1.2277         -DE/DX =    0.0                 !
 ! R2    R(1,3)                  1.3424         -DE/DX =    0.0001              !
 ! R3    R(1,5)                  1.5051         -DE/DX =    0.0                 !
 ! R4    R(3,4)                  1.0046         -DE/DX =    0.0                 !
 ! R5    R(3,9)                  1.4424         -DE/DX =    0.0                 !
 ! R6    R(5,6)                  1.0899         -DE/DX =    0.0                 !
 ! R7    R(5,7)                  1.0913         -DE/DX =    0.0                 !
 ! R8    R(5,8)                  1.0913         -DE/DX =    0.0                 !
 ! R9    R(9,10)                 1.0923         -DE/DX =    0.0                 !
 ! R10   R(9,11)                 1.0883         -DE/DX =    0.0                 !
 ! R11   R(9,12)                 1.0925         -DE/DX =    0.0                 !
 ! A1    A(2,1,3)              121.9581         -DE/DX =    0.0001              !
 ! A2    A(2,1,5)              121.6675         -DE/DX =   -0.0001              !
 ! A3    A(3,1,5)              116.3744         -DE/DX =    0.0                 !
 ! A4    A(1,3,4)              119.0632         -DE/DX =    0.0                 !
 ! A5    A(1,3,9)              122.016          -DE/DX =    0.0001              !
 ! A6    A(4,3,9)              118.9202         -DE/DX =   -0.0001              !
 ! A7    A(1,5,6)              113.5829         -DE/DX =    0.0                 !
 ! A8    A(1,5,7)              108.6489         -DE/DX =    0.0                 !
 ! A9    A(1,5,8)              108.6445         -DE/DX =    0.0                 !
 ! A10   A(6,5,7)              109.1022         -DE/DX =    0.0                 !
 ! A11   A(6,5,8)              109.0959         -DE/DX =    0.0                 !
 ! A12   A(7,5,8)              107.5978         -DE/DX =    0.0                 !
 ! A13   A(3,9,10)             110.9526         -DE/DX =    0.0                 !
 ! A14   A(3,9,11)             108.8346         -DE/DX =    0.0001              !
 ! A15   A(3,9,12)             111.0775         -DE/DX =    0.0                 !
 ! A16   A(10,9,11)            108.9242         -DE/DX =    0.0                 !
 ! A17   A(10,9,12)            108.0993         -DE/DX =    0.0                 !
 ! A18   A(11,9,12)            108.9055         -DE/DX =    0.0                 !
 ! D1    D(2,1,3,4)           -179.8229         -DE/DX =    0.0                 !
 ! D2    D(2,1,3,9)             -0.0951         -DE/DX =    0.0                 !
 ! D3    D(5,1,3,4)              0.192          -DE/DX =    0.0                 !
 ! D4    D(5,1,3,9)            179.9198         -DE/DX =    0.0                 !
 ! D5    D(2,1,5,6)           -179.845          -DE/DX =    0.0                 !
 ! D6    D(2,1,5,7)            -58.2314         -DE/DX =    0.0                 !
 ! D7    D(2,1,5,8)             58.5526         -DE/DX =    0.0                 !
 ! D8    D(3,1,5,6)              0.1401         -DE/DX =    0.0                 !
 ! D9    D(3,1,5,7)            121.7538         -DE/DX =    0.0                 !
 ! D10   D(3,1,5,8)           -121.4622         -DE/DX =    0.0                 !
 ! D11   D(1,3,9,10)            59.1101         -DE/DX =    0.0                 !
 ! D12   D(1,3,9,11)           178.9476         -DE/DX =    0.0                 !
 ! D13   D(1,3,9,12)           -61.1614         -DE/DX =    0.0                 !
 ! D14   D(4,3,9,10)          -121.1618         -DE/DX =    0.0                 !
 ! D15   D(4,3,9,11)            -1.3243         -DE/DX =    0.0                 !
 ! D16   D(4,3,9,12)           118.5668         -DE/DX =    0.0                 !
 --------------------------------------------------------------------------------
 GradGradGradGradGradGradGradGradGradGradGradGradGradGradGradGradGradGrad

 Leave Link  103 at Tue Jul  2 17:49:47 2024, MaxMem=  8053063680 cpu:               0.1 elap:               0.0
 (Enter /share/apps/g16.b01_avx2/g16/l9999.exe)

 ----------------------------------------------------------------------

 Electric dipole moment (input orientation):
 (Debye = 10**-18 statcoulomb cm , SI units = C m)
                  (au)            (Debye)         (10**-30 SI)
   Tot        0.206214D+01      0.524143D+01      0.174835D+02
   x          0.144456D+01      0.367170D+01      0.122475D+02
   y          0.138677D+01      0.352481D+01      0.117575D+02
   z          0.492496D+00      0.125180D+01      0.417555D+01

 Dipole polarizability, Alpha (input orientation).
 (esu units = cm**3 , SI units = C**2 m**2 J**-1)
 Alpha(0;0):
               (au)            (10**-24 esu)      (10**-40 SI)
   iso        0.594474D+02      0.880919D+01      0.980155D+01
   aniso      0.206085D+02      0.305386D+01      0.339788D+01
   xx         0.686546D+02      0.101736D+02      0.113196D+02
   yx        -0.276660D+01     -0.409968D+00     -0.456151D+00
   yy         0.620609D+02      0.919647D+01      0.102325D+02
   zx         0.382116D+01      0.566237D+00      0.630024D+00
   zy         0.191029D+01      0.283076D+00      0.314964D+00
   zz         0.476267D+02      0.705755D+01      0.785259D+01

 ----------------------------------------------------------------------

 Dipole orientation:
     6          0.31750186          0.67027290          1.75705862
     8          0.73693439          0.22670984         -0.48121772
     7          1.47867758         -0.60361893          3.61822239
     1          1.08268664         -0.16553241          5.42252022
     6         -1.52894101          2.67856044          2.56137236
     1         -1.74295267          2.83005867          4.60423598
     1         -0.89538326          4.49357215          1.81408688
     1         -3.36440423          2.26348356          1.71836942
     6          3.30003360         -2.56602186          3.10697159
     1          4.92608682         -1.82127702          2.07503603
     1          3.94744231         -3.35234441          4.89358418
     1          2.46009765         -4.07494818          1.97657905

 Electric dipole moment (dipole orientation):
 (Debye = 10**-18 statcoulomb cm , SI units = C m)
                  (au)            (Debye)         (10**-30 SI)
   Tot        0.206214D+01      0.524143D+01      0.174835D+02
   x          0.000000D+00      0.000000D+00      0.000000D+00
   y          0.000000D+00      0.000000D+00      0.000000D+00
   z          0.206214D+01      0.524143D+01      0.174835D+02

 Dipole polarizability, Alpha (dipole orientation).
 (esu units = cm**3 , SI units = C**2 m**2 J**-1)
 Alpha(0;0):
               (au)            (10**-24 esu)      (10**-40 SI)
   iso        0.594474D+02      0.880919D+01      0.980155D+01
   aniso      0.206085D+02      0.305386D+01      0.339788D+01
   xx         0.564378D+02      0.836322D+01      0.930533D+01
   yx        -0.106698D+02     -0.158111D+01     -0.175922D+01
   yy         0.581456D+02      0.861629D+01      0.958691D+01
   zx         0.242021D+01      0.358638D+00      0.399038D+00
   zy        -0.268261D+01     -0.397522D+00     -0.442303D+00
   zz         0.637588D+02      0.944808D+01      0.105124D+02

 ----------------------------------------------------------------------
 1\1\GINC-CORNBREAD-16-02\Freq\RPBE1PBE\def2TZVP\C3H7N1O1\HILLEL\02-Jul
 -2024\0\\#P Geom=AllCheck Guess=TCheck SCRF=Check GenChk RPBE1PBE/def2
 TZVP Freq\\N-Methylacetamide_product2\\0,1\C,0.6179169463,0.7865968186
 ,-0.1341630629\O,0.0114898045,-0.2433681886,-0.4146742196\N,1.93525489
 99,0.7872339065,0.1239466801\H,2.3894010792,1.6562034517,0.3428698933\
 C,-0.0781069062,2.1191640644,-0.0627246898\H,0.5802983261,2.9401184108
 ,0.2208770562\H,-0.5178961574,2.3355796666,-1.0379265257\H,-0.89362251
 12,2.0490529134,0.6588451497\C,2.7226658302,-0.4205768507,0.0825170646
 \H,2.709891049,-0.8647854138,-0.9157018248\H,3.7500742679,-0.179262615
 3,0.348146832\H,2.3388635317,-1.1608208436,0.7879919868\\Version=ES64L
 -G16RevB.01\State=1-A\HF=-248.3498915\RMSD=1.341e-09\RMSF=2.483e-05\Ze
 roPoint=0.1020681\Thermal=0.1086561\Dipole=1.4445564,1.3867663,0.49249
 59\DipoleDeriv=2.1810622,0.1030391,0.387126,0.4171835,1.4939932,0.2683
 09,0.4392757,0.2072365,0.4000538,-1.1835083,-0.2061245,-0.1570465,-0.6
 182045,-1.3305507,-0.244093,-0.2232602,-0.1641045,-0.6071201,-1.482643
 5,0.0451193,-0.1870446,0.087193,-0.5787997,-0.0025516,-0.1934414,-0.01
 01852,-0.5217956,0.206283,0.0590809,-0.0179135,0.074156,0.1709291,-0.0
 123339,-0.0120222,-0.0138938,0.3419035,-0.1019884,0.2798458,0.0180837,
 0.1731016,-0.2571932,-0.0085531,-0.0029976,0.0190089,0.0342859,-0.0250
 248,-0.1163911,-0.0484322,-0.0421931,-0.0546248,-0.0364818,-0.035015,-
 0.0535806,0.0920771,0.0825738,0.0195932,-0.0570472,0.0310281,0.050625,
 -0.0077506,-0.0816002,0.0293189,-0.0440196,0.0057762,-0.0002728,0.0847
 464,-0.0131795,0.0483963,0.0313042,0.1106775,-0.0074446,0.0355966,0.35
 29043,-0.1648745,-0.018842,-0.2303186,0.485439,-0.0077802,-0.0205367,0
 .0039255,0.2973463,0.0464095,0.0246649,-0.0408924,0.1062941,-0.0058415
 ,-0.0367329,0.0416959,-0.1047705,-0.1134351,-0.1026469,0.0031702,-0.04
 69864,-0.0584066,0.0398868,-0.027733,-0.0586006,-0.0150181,0.1031808,0
 .0208029,-0.0468505,0.084249,0.0733461,-0.0622594,0.0843969,0.0358247,
 0.1095073,-0.0180734\Polar=68.6545518,-2.7666038,62.0608734,3.8211562,
 1.9102908,47.6267332\Quadrupole=0.6670037,0.0919697,-0.7589735,-2.7911
 593,-0.1851052,-0.4429747\PG=C01 [X(C3H7N1O1)]\NImag=0\\0.71836971,0.1
 0214816,0.80785552,0.11074407,0.11003366,0.27121094,-0.21434969,-0.207
 21943,-0.05839526,0.26463199,-0.19368144,-0.48445653,-0.10106301,0.271
 35011,0.54544308,-0.05624828,-0.10380311,-0.10914644,0.08731647,0.1330
 0187,0.07465669,-0.34047297,0.04219333,-0.04868167,-0.06876495,-0.0635
 9076,-0.02777700,0.74069200,0.02027210,-0.13533158,-0.00814545,-0.0671
 3823,-0.01187508,-0.01843279,0.06335242,0.77929460,-0.05112519,-0.0036
 7263,-0.06758354,-0.02843262,-0.01806874,0.01332261,0.13835463,0.12269
 151,0.11371363,-0.00773133,-0.03437976,-0.00505121,-0.00756391,0.00113
 630,-0.00297714,-0.14732059,-0.15169832,-0.05133774,0.15360920,-0.0019
 0839,0.00190296,0.00118811,0.00359109,0.00472745,0.00014930,-0.1549072
 2,-0.36463485,-0.08549278,0.15914266,0.37469021,-0.00046339,-0.0052626
 2,-0.00925045,-0.00261935,-0.00031694,0.00802375,-0.05151987,-0.084599
 27,-0.02220200,0.05209584,0.08637688,0.03092480,-0.11726729,0.04423216
 ,0.00060887,0.01709958,-0.01817635,-0.00231385,-0.02473936,0.03610670,
 -0.00170043,-0.00033849,0.00141442,0.00087071,0.56010029,0.05706965,-0
 .16647300,-0.00151762,0.00290596,-0.05096602,-0.00974669,0.01016065,-0
 .00191967,-0.00028616,-0.00068365,0.00033403,0.00054574,0.05448821,0.5
 2087013,0.00293578,-0.00438130,-0.08540218,0.00090173,-0.01399919,0.01
 340623,-0.00579787,0.00476279,0.01203423,0.00037578,0.00087116,-0.0032
 1946,0.01111829,0.00818198,0.54644921,0.01141943,0.01010145,0.00521746
 ,-0.00009561,0.00541793,0.00016207,-0.00075830,0.00013208,-0.00014528,
 -0.00076602,0.00176488,-0.00001087,-0.15167733,-0.12671015,-0.04464492
 ,0.16112712,-0.02502690,-0.01336152,-0.00698586,0.00410474,-0.00891241
 ,-0.00098661,0.00024673,0.00187292,0.00044268,0.00228082,-0.00043535,0
 .00021827,-0.12157939,-0.20146212,-0.05336117,0.13433087,0.21658590,-0
 .00082524,0.00080506,-0.00427933,0.00003908,-0.00067666,0.00265982,-0.
 00007085,0.00031987,-0.00003056,0.00010766,0.00013782,0.00092844,-0.04
 382331,-0.05444348,-0.06405387,0.04855050,0.05890441,0.06375070,-0.010
 29781,0.00349812,-0.01599044,0.00088801,-0.00230025,0.00124574,-0.0009
 5537,0.00292824,0.00094349,0.00062064,0.00017893,-0.00052886,-0.084207
 45,0.02075929,-0.10144528,-0.00738878,0.00525590,-0.01588981,0.0916921
 3,0.01089349,-0.00551460,0.02933176,-0.00039283,0.00145298,-0.00328313
 ,0.00121623,-0.00269976,-0.00151866,0.00011704,-0.00028577,0.00016447,
 0.02023726,-0.05600329,0.04841611,-0.00848966,0.00588667,-0.02172957,-
 0.02535245,0.05823491,0.00103237,-0.00181584,0.00242921,0.00033644,0.0
 0008406,0.00083507,0.00055285,0.00020842,-0.00019365,0.00020348,-0.000
 06453,0.00010949,-0.10062652,0.04823259,-0.26388549,-0.00120158,0.0014
 9019,-0.00535238,0.10874347,-0.05199402,0.28417730,-0.01549500,-0.0016
 3277,0.01028037,0.00182062,-0.00167637,-0.00175507,-0.00056383,0.00323
 734,-0.00005872,0.00049097,-0.00001095,0.00063206,-0.19565425,-0.01535
 476,0.13919068,-0.01253540,0.00046562,0.01175406,0.01044578,0.00072335
 ,-0.00919850,0.21185255,0.02290552,0.00274970,-0.02255981,-0.00150262,
 0.00090373,0.00280070,0.00094281,-0.00339873,0.00104311,0.00021882,-0.
 00023886,-0.00026483,-0.01590401,-0.04641829,0.01067247,-0.01622812,-0
 .00067628,0.01664004,-0.00503423,-0.00117592,0.00381589,0.01387102,0.0
 4846691,-0.00143399,0.00172815,-0.00075684,-0.00055149,-0.00088216,0.0
 0084718,-0.00038120,0.00017497,-0.00015687,0.00003134,-0.00003865,0.00
 024924,0.13835611,0.01063402,-0.16299538,-0.00805336,0.00017714,0.0064
 5703,0.02180789,0.00146574,-0.01786250,-0.14977902,-0.01341574,0.17458
 150,-0.03260624,0.03192604,-0.00149469,0.00706986,0.00568775,0.0032292
 3,-0.13885345,0.06553796,-0.00475278,0.01055394,-0.01110886,0.00135084
 ,-0.00220516,-0.00227131,-0.00239855,0.00052361,0.00003725,0.00014930,
 -0.00056245,0.00072188,0.00019857,-0.00008537,0.00044826,-0.00005698,0
 .58222659,0.02107271,0.00317043,0.00430451,-0.00844002,-0.00343762,-0.
 00130315,0.05568878,-0.21055063,-0.01354600,0.01855464,-0.01439753,0.0
 0214761,-0.00259450,0.00207302,-0.00157672,-0.00018467,0.00027797,0.00
 003426,-0.00024331,0.00036062,-0.00001725,0.00006013,0.00007112,0.0001
 7361,0.04715605,0.52869705,-0.00383232,0.00632909,0.00113545,0.0010493
 3,0.00178805,-0.00485565,-0.00578154,-0.01171082,-0.06169530,0.0057875
 3,-0.00327357,-0.00499997,-0.00263494,-0.00155707,0.00800035,0.0001288
 6,0.00009812,-0.00009666,0.00115944,-0.00084253,-0.00019094,-0.0011244
 9,0.00120223,-0.00035338,0.01130003,0.00333646,0.56560750,0.00374353,0
 .00318686,0.00221227,-0.00022139,-0.00247141,-0.00059171,-0.00369992,0
 .01322712,0.01732534,-0.00131500,0.00058494,0.00112579,0.00001746,0.00
 012802,-0.00134435,0.00004098,-0.00007186,0.00001280,-0.00025475,0.000
 25541,-0.00002534,0.00009930,-0.00010430,0.00005733,-0.04764199,-0.004
 86472,-0.01022433,0.04706319,-0.00626042,-0.00160643,-0.00156170,0.002
 03158,0.00223536,0.00058374,0.00709484,-0.02295914,-0.02538968,0.00301
 288,-0.00124348,-0.00226703,0.00009396,-0.00031960,0.00108714,-0.00002
 675,0.00008814,-0.00002473,0.00024073,-0.00014114,0.00000065,-0.000061
 78,0.00009033,-0.00005675,-0.00342095,-0.08269170,-0.08920382,-0.00307
 675,0.10031133,-0.00304364,-0.00128001,0.00032398,0.00035296,0.0015053
 8,0.00016735,0.00407676,-0.00391718,0.00790773,0.00052668,0.00091619,-
 0.00078546,0.00027470,0.00001854,-0.00043547,0.00001838,0.00002992,0.0
 0001205,-0.00004179,0.00005230,-0.00004223,0.00008294,-0.00004751,-0.0
 0000157,-0.00761726,-0.09310027,-0.27535290,0.00690338,0.10407639,0.29
 249173,0.00172345,0.00314727,0.00074191,-0.00030025,0.00006682,-0.0001
 4017,-0.02023784,-0.00405126,-0.00450527,0.00073044,-0.00016249,0.0000
 1614,-0.00071406,-0.00017670,-0.00021653,0.00004956,0.00000366,0.00000
 911,-0.00012582,0.00017595,0.00001473,-0.00011131,0.00015861,-0.000013
 27,-0.29282555,-0.05810408,-0.06360937,0.00160181,-0.00029934,0.000322
 62,0.31872046,-0.00067510,-0.00691850,-0.00110874,-0.00112572,0.002211
 43,0.00006792,0.03838498,0.00263796,0.00892749,0.00006000,0.00148155,0
 .00013869,0.00115866,0.00028167,0.00013431,-0.00006914,0.00004414,-0.0
 0000885,0.00013434,-0.00017557,0.00000690,0.00017572,-0.00024280,-0.00
 000627,-0.07065943,-0.06550789,-0.01852545,-0.01072500,-0.00263623,-0.
 00087261,0.06147435,0.07244103,0.00037173,-0.00042334,-0.00000038,-0.0
 0026327,0.00020699,0.00038288,0.00268456,0.00001101,-0.00126178,0.0000
 0167,0.00008537,0.00088804,-0.00002978,-0.00005393,0.00036399,-0.00000
 744,0.00000686,0.00000507,0.00004518,-0.00009275,-0.00000769,-0.000040
 71,0.00009564,0.00000137,-0.06583856,-0.01587978,-0.06415839,-0.027598
 79,-0.00615376,-0.00507338,0.07035779,0.01838030,0.06260918,0.00296422
 ,0.00279858,-0.00019167,-0.00021426,-0.00176233,-0.00015031,0.00567457
 ,0.01809386,-0.01456542,-0.00096985,0.00142101,-0.00094906,-0.00041394
 ,-0.00031521,0.00132523,0.00006073,-0.00004746,-0.00001331,0.00014587,
 -0.00010567,-0.00002996,-0.00026406,0.00022824,0.00001664,-0.08559379,
 -0.06810102,0.06778181,0.00056678,0.00067199,-0.00185573,-0.00851089,-
 0.01813367,0.02031762,0.08655463,-0.00680937,-0.00201644,-0.00191585,0
 .00183537,0.00267364,0.00095195,-0.00078279,-0.03043605,0.01486987,0.0
 0223857,-0.00190037,0.00311902,0.00052287,0.00000314,-0.00080760,-0.00
 003871,0.00009193,0.00004184,-0.00006532,0.00006087,0.00005294,0.00020
 345,-0.00013091,0.00004592,-0.06405465,-0.15806483,0.11235932,0.003931
 68,0.00887256,-0.00738114,-0.00223278,-0.00361679,0.00381739,0.0652516
 9,0.18446326,0.00188810,0.00174289,0.00131958,0.00026597,-0.00157966,-
 0.00029948,-0.00565880,-0.00136308,0.00614550,0.00023611,-0.00085530,-
 0.00066643,-0.00009985,-0.00000793,-0.00026216,-0.00001381,-0.00003396
 ,-0.00000031,-0.00004905,0.00003030,-0.00001619,0.00001639,0.00001781,
 -0.00000978,0.06593086,0.11542673,-0.16304011,0.01214759,0.01890955,-0
 .01921183,-0.00297768,-0.00713369,0.00625107,-0.07168583,-0.12515366,0
 .16979015\\0.00000485,0.00002682,0.00000226,0.00006275,-0.00003240,0.0
 0000474,0.00000444,0.00008215,0.00003937,-0.00001007,-0.00000330,-0.00
 000953,-0.00001173,-0.00000645,-0.00000388,0.00000461,0.00000012,0.000
 00464,0.00001038,0.00000560,-0.00000457,0.00000190,0.00000210,-0.00000
 619,-0.00004406,-0.00002729,-0.00000185,0.00001112,-0.00004340,-0.0000
 1586,-0.00003891,0.00001803,0.00000397,0.00000472,-0.00002197,-0.00001
 310\\\@


 SLITHERY-DITHERY
 FRIEDRICH A. KEKULE
 DREAMT ON A BUS OF THINGS
 FREUD WOULD THINK KEEN.
 MOST OF THE TIME THEY WERE
 HERPETOLOGICAL
 BITING THEIR TAILS IN THE
 SHAPE OF BENZENE.
 Job cpu time:       0 days  0 hours 14 minutes 50.0 seconds.
 Elapsed time:       0 days  0 hours  0 minutes 55.8 seconds.
 File lengths (MBytes):  RWF=     66 Int=      0 D2E=      0 Chk=      8 Scr=      1
 Normal termination of Gaussian 16 at Tue Jul  2 17:49:47 2024.
