 Entering Gaussian System, Link 0=g16
 Input=input.com
 Output=input.log
 Initial command:
 /share/apps/g16.b01_avx2/g16/l1.exe "/scratch/Gau-1849219.inp" -scrdir="/scratch/"
 Entering Link 1 = /share/apps/g16.b01_avx2/g16/l1.exe PID=   1849222.
  
 Copyright (c) 1988-2017, Gaussian, Inc.  All Rights Reserved.
  
 This is part of the Gaussian(R) 16 program.  It is based on
 the Gaussian(R) 09 system (copyright 2009, Gaussian, Inc.),
 the Gaussian(R) 03 system (copyright 2003, Gaussian, Inc.),
 the Gaussian(R) 98 system (copyright 1998, Gaussian, Inc.),
 the Gaussian(R) 94 system (copyright 1995, Gaussian, Inc.),
 the Gaussian 92(TM) system (copyright 1992, Gaussian, Inc.),
 the Gaussian 90(TM) system (copyright 1990, Gaussian, Inc.),
 the Gaussian 88(TM) system (copyright 1988, Gaussian, Inc.),
 the Gaussian 86(TM) system (copyright 1986, Carnegie Mellon
 University), and the Gaussian 82(TM) system (copyright 1983,
 Carnegie Mellon University). Gaussian is a federally registered
 trademark of Gaussian, Inc.
  
 This software contains proprietary and confidential information,
 including trade secrets, belonging to Gaussian, Inc.
  
 This software is provided under written license and may be
 used, copied, transmitted, or stored only in accord with that
 written license.
  
 The following legend is applicable only to US Government
 contracts under FAR:
  
                    RESTRICTED RIGHTS LEGEND
  
 Use, reproduction and disclosure by the US Government is
 subject to restrictions as set forth in subparagraphs (a)
 and (c) of the Commercial Computer Software - Restricted
 Rights clause in FAR 52.227-19.
  
 Gaussian, Inc.
 340 Quinnipiac St., Bldg. 40, Wallingford CT 06492
  
  
 ---------------------------------------------------------------
 Warning -- This program may not be used in any manner that
 competes with the business of Gaussian, Inc. or will provide
 assistance to any competitor of Gaussian, Inc.  The licensee
 of this program is prohibited from giving any competitor of
 Gaussian, Inc. access to this program.  By using this program,
 the user acknowledges that Gaussian, Inc. is engaged in the
 business of creating and licensing software in the field of
 computational chemistry and represents and warrants to the
 licensee that it is not a competitor of Gaussian, Inc. and that
 it will not use this program in any manner prohibited above.
 ---------------------------------------------------------------
  

 Cite this work as:
 Gaussian 16, Revision B.01,
 M. J. Frisch, G. W. Trucks, H. B. Schlegel, G. E. Scuseria, 
 M. A. Robb, J. R. Cheeseman, G. Scalmani, V. Barone, 
 G. A. Petersson, H. Nakatsuji, X. Li, M. Caricato, A. V. Marenich, 
 J. Bloino, B. G. Janesko, R. Gomperts, B. Mennucci, H. P. Hratchian, 
 J. V. Ortiz, A. F. Izmaylov, J. L. Sonnenberg, D. Williams-Young, 
 F. Ding, F. Lipparini, F. Egidi, J. Goings, B. Peng, A. Petrone, 
 T. Henderson, D. Ranasinghe, V. G. Zakrzewski, J. Gao, N. Rega, 
 G. Zheng, W. Liang, M. Hada, M. Ehara, K. Toyota, R. Fukuda, 
 J. Hasegawa, M. Ishida, T. Nakajima, Y. Honda, O. Kitao, H. Nakai, 
 T. Vreven, K. Throssell, J. A. Montgomery, Jr., J. E. Peralta, 
 F. Ogliaro, M. J. Bearpark, J. J. Heyd, E. N. Brothers, K. N. Kudin, 
 V. N. Staroverov, T. A. Keith, R. Kobayashi, J. Normand, 
 K. Raghavachari, A. P. Rendell, J. C. Burant, S. S. Iyengar, 
 J. Tomasi, M. Cossi, J. M. Millam, M. Klene, C. Adamo, R. Cammi, 
 J. W. Ochterski, R. L. Martin, K. Morokuma, O. Farkas, 
 J. B. Foresman, and D. J. Fox, Gaussian, Inc., Wallingford CT, 2016.
 
 ******************************************
 Gaussian 16:  ES64L-G16RevB.01 20-Dec-2017
                28-Aug-2024 
 ******************************************
 %nproc=24
 Will use up to   24 processors via shared memory.
 %mem=64GB
 ----------------------------------------------------------------------
 #P PBE1PBE/def2TZVP opt freq EmpiricalDispersion=GD3 Int=(grid=99590) 
 scrf=(iefpcm, solvent=water)
 ----------------------------------------------------------------------
 1/18=20,19=15,26=6,38=1/1,3;
 2/9=110,12=2,17=6,18=5,40=1/2;
 3/5=44,7=101,11=2,25=1,30=1,70=2201,71=1,72=1,74=-13,75=99590,124=31/1,2,3;
 4//1;
 5/5=2,38=5,53=1/2;
 6/7=2,8=2,9=2,10=2,28=1/1;
 7//1,2,3,16;
 1/18=20,19=15,26=6/3(2);
 2/9=110/2;
 99//99;
 2/9=110/2;
 3/5=44,7=101,11=2,25=1,30=1,70=2205,71=1,72=1,74=-13,75=99590,124=31/1,2,3;
 4/5=5,16=3,69=1/1;
 5/5=2,38=5,53=1/2;
 7//1,2,3,16;
 1/18=20,19=15,26=6/3(-5);
 2/9=110/2;
 6/7=2,8=2,9=2,10=2,19=2,28=1/1;
 99/9=1/99;
 Leave Link    1 at Wed Aug 28 20:58:42 2024, MaxMem=  8589934592 cpu:               0.6 elap:               0.0
 (Enter /share/apps/g16.b01_avx2/g16/l101.exe)
 ------------------
 pfp-oh_ester inter
 ------------------
 Symbolic Z-matrix:
 Charge =  0 Multiplicity = 1
 H                    -2.38383   1.6242    0.15024 
 O                    -1.82159  -0.54909   1.31775 
 C                    -2.28509  -0.50216   0.17075 
 N                    -3.08941   0.92129  -0.05831 
 H                    -3.34124   1.03395  -1.03733 
 C                    -4.24972   1.08753   0.82714 
 H                    -5.04366   0.41513   0.51086 
 H                    -3.93389   0.84095   1.83915 
 H                    -4.60674   2.11529   0.78855 
 C                    -3.18374  -1.59725  -0.36513 
 H                    -4.02774  -1.74637   0.30875 
 H                    -3.5489   -1.38801  -1.37139 
 O                    -1.25518  -0.27146  -0.96263 
 C                     0.01051  -0.12482  -0.55805 
 C                     0.58541   1.13588  -0.42547 
 C                     0.82232  -1.2224   -0.28247 
 C                     1.90823   1.3055   -0.05907 
 C                     2.14596  -1.07126   0.08962 
 C                     2.69328   0.19587   0.201 
 F                    -0.16252   2.21749  -0.64948 
 F                     0.32385  -2.44952  -0.38922 
 F                     2.42537   2.52424   0.05163 
 F                     2.89816  -2.13758   0.34052 
 F                     3.96377   0.34454   0.55525 
 O                    -2.41036  -2.79965  -0.39745 
 H                    -2.86652  -3.46     -0.92419 
 
 ITRead=  0  0  0  0  0  0  0  0  0  0  0  0  0  0  0  0  0  0  0  0
 ITRead=  0  0  0  0  0  0
 MicOpt= -1 -1 -1 -1 -1 -1 -1 -1 -1 -1 -1 -1 -1 -1 -1 -1 -1 -1 -1 -1
 MicOpt= -1 -1 -1 -1 -1 -1
 NAtoms=     26 NQM=       26 NQMF=       0 NMMI=      0 NMMIF=      0
                NMic=       0 NMicF=      0.
                    Isotopes and Nuclear Properties:
 (Nuclear quadrupole moments (NQMom) in fm**2, nuclear magnetic moments (NMagM)
  in nuclear magnetons)

  Atom         1           2           3           4           5           6           7           8           9          10
 IAtWgt=           1          16          12          14           1          12           1           1           1          12
 AtmWgt=   1.0078250  15.9949146  12.0000000  14.0030740   1.0078250  12.0000000   1.0078250   1.0078250   1.0078250  12.0000000
 NucSpn=           1           0           0           2           1           0           1           1           1           0
 AtZEff=  -0.0000000  -0.0000000  -0.0000000  -0.0000000  -0.0000000  -0.0000000  -0.0000000  -0.0000000  -0.0000000  -0.0000000
 NQMom=    0.0000000   0.0000000   0.0000000   2.0440000   0.0000000   0.0000000   0.0000000   0.0000000   0.0000000   0.0000000
 NMagM=    2.7928460   0.0000000   0.0000000   0.4037610   2.7928460   0.0000000   2.7928460   2.7928460   2.7928460   0.0000000
 AtZNuc=   1.0000000   8.0000000   6.0000000   7.0000000   1.0000000   6.0000000   1.0000000   1.0000000   1.0000000   6.0000000

  Atom        11          12          13          14          15          16          17          18          19          20
 IAtWgt=           1           1          16          12          12          12          12          12          12          19
 AtmWgt=   1.0078250   1.0078250  15.9949146  12.0000000  12.0000000  12.0000000  12.0000000  12.0000000  12.0000000  18.9984032
 NucSpn=           1           1           0           0           0           0           0           0           0           1
 AtZEff=  -0.0000000  -0.0000000  -0.0000000  -0.0000000  -0.0000000  -0.0000000  -0.0000000  -0.0000000  -0.0000000  -0.0000000
 NQMom=    0.0000000   0.0000000   0.0000000   0.0000000   0.0000000   0.0000000   0.0000000   0.0000000   0.0000000   0.0000000
 NMagM=    2.7928460   2.7928460   0.0000000   0.0000000   0.0000000   0.0000000   0.0000000   0.0000000   0.0000000   2.6288670
 AtZNuc=   1.0000000   1.0000000   8.0000000   6.0000000   6.0000000   6.0000000   6.0000000   6.0000000   6.0000000   9.0000000

  Atom        21          22          23          24          25          26
 IAtWgt=          19          19          19          19          16           1
 AtmWgt=  18.9984032  18.9984032  18.9984032  18.9984032  15.9949146   1.0078250
 NucSpn=           1           1           1           1           0           1
 AtZEff=  -0.0000000  -0.0000000  -0.0000000  -0.0000000  -0.0000000  -0.0000000
 NQMom=    0.0000000   0.0000000   0.0000000   0.0000000   0.0000000   0.0000000
 NMagM=    2.6288670   2.6288670   2.6288670   2.6288670   0.0000000   2.7928460
 AtZNuc=   9.0000000   9.0000000   9.0000000   9.0000000   8.0000000   1.0000000
 Leave Link  101 at Wed Aug 28 20:58:42 2024, MaxMem=  8589934592 cpu:               6.1 elap:               0.3
 (Enter /share/apps/g16.b01_avx2/g16/l103.exe)

 GradGradGradGradGradGradGradGradGradGradGradGradGradGradGradGradGradGrad
 Berny optimization.
 Initialization pass.
                           ----------------------------
                           !    Initial Parameters    !
                           ! (Angstroms and Degrees)  !
 --------------------------                            --------------------------
 ! Name  Definition              Value          Derivative Info.                !
 --------------------------------------------------------------------------------
 ! R1    R(1,4)                  1.0176         estimate D2E/DX2                !
 ! R2    R(2,3)                  1.238          estimate D2E/DX2                !
 ! R3    R(3,4)                  1.6509         estimate D2E/DX2                !
 ! R4    R(3,10)                 1.5146         estimate D2E/DX2                !
 ! R5    R(3,13)                 1.5487         estimate D2E/DX2                !
 ! R6    R(4,5)                  1.0171         estimate D2E/DX2                !
 ! R7    R(4,6)                  1.469          estimate D2E/DX2                !
 ! R8    R(6,7)                  1.0874         estimate D2E/DX2                !
 ! R9    R(6,8)                  1.0884         estimate D2E/DX2                !
 ! R10   R(6,9)                  1.0887         estimate D2E/DX2                !
 ! R11   R(10,11)                1.0903         estimate D2E/DX2                !
 ! R12   R(10,12)                1.0907         estimate D2E/DX2                !
 ! R13   R(10,25)                1.43           estimate D2E/DX2                !
 ! R14   R(13,14)                1.3368         estimate D2E/DX2                !
 ! R15   R(14,15)                1.3919         estimate D2E/DX2                !
 ! R16   R(14,16)                1.3927         estimate D2E/DX2                !
 ! R17   R(15,17)                1.3831         estimate D2E/DX2                !
 ! R18   R(15,20)                1.334          estimate D2E/DX2                !
 ! R19   R(16,18)                1.3832         estimate D2E/DX2                !
 ! R20   R(16,21)                1.3288         estimate D2E/DX2                !
 ! R21   R(17,19)                1.3839         estimate D2E/DX2                !
 ! R22   R(17,22)                1.3285         estimate D2E/DX2                !
 ! R23   R(18,19)                1.3848         estimate D2E/DX2                !
 ! R24   R(18,23)                1.3288         estimate D2E/DX2                !
 ! R25   R(19,24)                1.3273         estimate D2E/DX2                !
 ! R26   R(25,26)                0.96           estimate D2E/DX2                !
 ! A1    A(2,3,4)              110.0987         estimate D2E/DX2                !
 ! A2    A(2,3,10)             121.5026         estimate D2E/DX2                !
 ! A3    A(2,3,13)             115.7658         estimate D2E/DX2                !
 ! A4    A(4,3,10)             106.5739         estimate D2E/DX2                !
 ! A5    A(4,3,13)              95.3945         estimate D2E/DX2                !
 ! A6    A(10,3,13)            104.0841         estimate D2E/DX2                !
 ! A7    A(1,4,3)              103.2582         estimate D2E/DX2                !
 ! A8    A(1,4,5)              107.004          estimate D2E/DX2                !
 ! A9    A(1,4,6)              110.2424         estimate D2E/DX2                !
 ! A10   A(3,4,5)              110.4667         estimate D2E/DX2                !
 ! A11   A(3,4,6)              113.4997         estimate D2E/DX2                !
 ! A12   A(5,4,6)              111.8433         estimate D2E/DX2                !
 ! A13   A(4,6,7)              109.3539         estimate D2E/DX2                !
 ! A14   A(4,6,8)              107.794          estimate D2E/DX2                !
 ! A15   A(4,6,9)              110.1501         estimate D2E/DX2                !
 ! A16   A(7,6,8)              110.0113         estimate D2E/DX2                !
 ! A17   A(7,6,9)              109.5119         estimate D2E/DX2                !
 ! A18   A(8,6,9)              109.997          estimate D2E/DX2                !
 ! A19   A(3,10,11)            109.847          estimate D2E/DX2                !
 ! A20   A(3,10,12)            112.7272         estimate D2E/DX2                !
 ! A21   A(3,10,25)            107.1613         estimate D2E/DX2                !
 ! A22   A(11,10,12)           109.7118         estimate D2E/DX2                !
 ! A23   A(11,10,25)           108.5199         estimate D2E/DX2                !
 ! A24   A(12,10,25)           108.7547         estimate D2E/DX2                !
 ! A25   A(3,13,14)            115.1181         estimate D2E/DX2                !
 ! A26   A(13,14,15)           121.2798         estimate D2E/DX2                !
 ! A27   A(13,14,16)           121.6893         estimate D2E/DX2                !
 ! A28   A(15,14,16)           117.0125         estimate D2E/DX2                !
 ! A29   A(14,15,17)           122.0963         estimate D2E/DX2                !
 ! A30   A(14,15,20)           119.1312         estimate D2E/DX2                !
 ! A31   A(17,15,20)           118.771          estimate D2E/DX2                !
 ! A32   A(14,16,18)           121.662          estimate D2E/DX2                !
 ! A33   A(14,16,21)           119.5526         estimate D2E/DX2                !
 ! A34   A(18,16,21)           118.7824         estimate D2E/DX2                !
 ! A35   A(15,17,19)           119.6047         estimate D2E/DX2                !
 ! A36   A(15,17,22)           120.4557         estimate D2E/DX2                !
 ! A37   A(19,17,22)           119.9384         estimate D2E/DX2                !
 ! A38   A(16,18,19)           119.9891         estimate D2E/DX2                !
 ! A39   A(16,18,23)           120.317          estimate D2E/DX2                !
 ! A40   A(19,18,23)           119.6939         estimate D2E/DX2                !
 ! A41   A(17,19,18)           119.6281         estimate D2E/DX2                !
 ! A42   A(17,19,24)           120.2209         estimate D2E/DX2                !
 ! A43   A(18,19,24)           120.1511         estimate D2E/DX2                !
 ! A44   A(10,25,26)           109.5            estimate D2E/DX2                !
 ! D1    D(2,3,4,1)             56.6794         estimate D2E/DX2                !
 ! D2    D(2,3,4,5)            170.7981         estimate D2E/DX2                !
 ! D3    D(2,3,4,6)            -62.6653         estimate D2E/DX2                !
 ! D4    D(10,3,4,1)          -169.7342         estimate D2E/DX2                !
 ! D5    D(10,3,4,5)           -55.6155         estimate D2E/DX2                !
 ! D6    D(10,3,4,6)            70.9211         estimate D2E/DX2                !
 ! D7    D(13,3,4,1)           -63.2872         estimate D2E/DX2                !
 ! D8    D(13,3,4,5)            50.8315         estimate D2E/DX2                !
 ! D9    D(13,3,4,6)           177.3681         estimate D2E/DX2                !
 ! D10   D(2,3,10,11)           54.5263         estimate D2E/DX2                !
 ! D11   D(2,3,10,12)          177.2075         estimate D2E/DX2                !
 ! D12   D(2,3,10,25)          -63.177          estimate D2E/DX2                !
 ! D13   D(4,3,10,11)          -72.5523         estimate D2E/DX2                !
 ! D14   D(4,3,10,12)           50.1289         estimate D2E/DX2                !
 ! D15   D(4,3,10,25)          169.7445         estimate D2E/DX2                !
 ! D16   D(13,3,10,11)        -172.6774         estimate D2E/DX2                !
 ! D17   D(13,3,10,12)         -49.9961         estimate D2E/DX2                !
 ! D18   D(13,3,10,25)          69.6194         estimate D2E/DX2                !
 ! D19   D(2,3,13,14)           -1.2473         estimate D2E/DX2                !
 ! D20   D(4,3,13,14)          114.1475         estimate D2E/DX2                !
 ! D21   D(10,3,13,14)        -137.2444         estimate D2E/DX2                !
 ! D22   D(1,4,6,7)            172.859          estimate D2E/DX2                !
 ! D23   D(1,4,6,8)            -67.5596         estimate D2E/DX2                !
 ! D24   D(1,4,6,9)             52.4628         estimate D2E/DX2                !
 ! D25   D(3,4,6,7)            -71.8709         estimate D2E/DX2                !
 ! D26   D(3,4,6,8)             47.7105         estimate D2E/DX2                !
 ! D27   D(3,4,6,9)            167.7328         estimate D2E/DX2                !
 ! D28   D(5,4,6,7)             53.937          estimate D2E/DX2                !
 ! D29   D(5,4,6,8)            173.5184         estimate D2E/DX2                !
 ! D30   D(5,4,6,9)            -66.4592         estimate D2E/DX2                !
 ! D31   D(3,10,25,26)        -166.2659         estimate D2E/DX2                !
 ! D32   D(11,10,25,26)         75.1674         estimate D2E/DX2                !
 ! D33   D(12,10,25,26)        -44.1336         estimate D2E/DX2                !
 ! D34   D(3,13,14,15)         -98.8821         estimate D2E/DX2                !
 ! D35   D(3,13,14,16)          82.7259         estimate D2E/DX2                !
 ! D36   D(13,14,15,17)       -177.409          estimate D2E/DX2                !
 ! D37   D(13,14,15,20)          3.0457         estimate D2E/DX2                !
 ! D38   D(16,14,15,17)          1.0552         estimate D2E/DX2                !
 ! D39   D(16,14,15,20)       -178.4901         estimate D2E/DX2                !
 ! D40   D(13,14,16,18)        177.6349         estimate D2E/DX2                !
 ! D41   D(13,14,16,21)         -1.7371         estimate D2E/DX2                !
 ! D42   D(15,14,16,18)         -0.8226         estimate D2E/DX2                !
 ! D43   D(15,14,16,21)        179.8054         estimate D2E/DX2                !
 ! D44   D(14,15,17,19)         -0.7078         estimate D2E/DX2                !
 ! D45   D(14,15,17,22)        179.6795         estimate D2E/DX2                !
 ! D46   D(20,15,17,19)        178.8391         estimate D2E/DX2                !
 ! D47   D(20,15,17,22)         -0.7736         estimate D2E/DX2                !
 ! D48   D(14,16,18,19)          0.2505         estimate D2E/DX2                !
 ! D49   D(14,16,18,23)       -179.6925         estimate D2E/DX2                !
 ! D50   D(21,16,18,19)        179.6272         estimate D2E/DX2                !
 ! D51   D(21,16,18,23)         -0.3158         estimate D2E/DX2                !
 ! D52   D(15,17,19,18)          0.0882         estimate D2E/DX2                !
 ! D53   D(15,17,19,24)       -179.9114         estimate D2E/DX2                !
 ! D54   D(22,17,19,18)        179.7029         estimate D2E/DX2                !
 ! D55   D(22,17,19,24)         -0.2967         estimate D2E/DX2                !
 ! D56   D(16,18,19,17)          0.1335         estimate D2E/DX2                !
 ! D57   D(16,18,19,24)       -179.8669         estimate D2E/DX2                !
 ! D58   D(23,18,19,17)       -179.9232         estimate D2E/DX2                !
 ! D59   D(23,18,19,24)          0.0764         estimate D2E/DX2                !
 --------------------------------------------------------------------------------
 Trust Radius=3.00D-01 FncErr=5.00D-06 GrdErr=5.00D-06 EigMax=2.50D+02 EigMin=1.00D-04
 Number of steps in this run=    139 maximum allowed number of steps=    156.
 GradGradGradGradGradGradGradGradGradGradGradGradGradGradGradGradGradGrad

 Leave Link  103 at Wed Aug 28 20:58:42 2024, MaxMem=  8589934592 cpu:               0.1 elap:               0.0
 (Enter /share/apps/g16.b01_avx2/g16/l202.exe)
                          Input orientation:                          
 ---------------------------------------------------------------------
 Center     Atomic      Atomic             Coordinates (Angstroms)
 Number     Number       Type             X           Y           Z
 ---------------------------------------------------------------------
      1          1           0       -2.383829    1.624202    0.150237
      2          8           0       -1.821586   -0.549093    1.317749
      3          6           0       -2.285094   -0.502158    0.170750
      4          7           0       -3.089411    0.921294   -0.058314
      5          1           0       -3.341241    1.033951   -1.037329
      6          6           0       -4.249723    1.087525    0.827140
      7          1           0       -5.043664    0.415126    0.510861
      8          1           0       -3.933886    0.840950    1.839147
      9          1           0       -4.606738    2.115293    0.788554
     10          6           0       -3.183739   -1.597254   -0.365134
     11          1           0       -4.027744   -1.746369    0.308745
     12          1           0       -3.548898   -1.388006   -1.371387
     13          8           0       -1.255180   -0.271461   -0.962627
     14          6           0        0.010505   -0.124822   -0.558054
     15          6           0        0.585408    1.135881   -0.425472
     16          6           0        0.822320   -1.222397   -0.282473
     17          6           0        1.908228    1.305495   -0.059071
     18          6           0        2.145960   -1.071257    0.089620
     19          6           0        2.693277    0.195871    0.200995
     20          9           0       -0.162520    2.217487   -0.649477
     21          9           0        0.323848   -2.449521   -0.389216
     22          9           0        2.425365    2.524237    0.051633
     23          9           0        2.898159   -2.137581    0.340520
     24          9           0        3.963765    0.344539    0.555246
     25          8           0       -2.410363   -2.799645   -0.397454
     26          1           0       -2.866522   -3.460003   -0.924186
 ---------------------------------------------------------------------
                    Distance matrix (angstroms):
                    1          2          3          4          5
     1  H    0.000000
     2  O    2.530299   0.000000
     3  C    2.128750   1.238002   0.000000
     4  N    1.017555   2.379699   1.650943   0.000000
     5  H    1.635649   3.218971   2.221381   1.017143   0.000000
     6  C    2.056157   2.969018   2.611074   1.469008   2.074718
     7  H    2.943915   3.458695   2.926909   2.097444   2.382872
     8  H    2.422515   2.581838   2.702962   2.078449   2.943228
     9  H    2.364306   3.890510   3.552853   2.108341   2.470755
    10  C    3.359054   2.405452   1.514586   2.538921   2.720274
    11  H    3.753442   2.705308   2.145678   2.851601   3.164393
    12  H    3.570171   3.304366   2.181768   2.695952   2.453689
    13  O    2.471002   2.366011   1.548705   2.367456   2.461977
    14  C    3.048540   2.656163   2.437891   3.309619   3.578639
    15  C    3.063701   3.416369   3.358338   3.699344   3.975340
    16  C    4.309264   3.162956   3.221828   4.466240   4.795431
    17  C    4.308960   4.387100   4.572130   5.012385   5.346742
    18  C    5.271448   4.185974   4.468187   5.603682   5.984253
    19  C    5.274439   4.710212   5.027160   5.833778   6.217011
    20  F    2.434285   3.778418   3.546063   3.255193   3.414008
    21  F    4.921153   3.335902   3.303387   4.808558   5.097794
    22  F    4.893683   5.393051   5.600150   5.744064   6.054794
    23  F    6.487420   5.074866   5.437788   6.735487   7.133526
    24  F    6.487952   5.903412   6.317671   7.103266   7.508309
    25  O    4.457701   2.890254   2.370020   3.797566   3.996553
    26  H    5.218862   3.819890   3.207147   4.471597   4.520374
                    6          7          8          9         10
     6  C    0.000000
     7  H    1.087426   0.000000
     8  H    1.088444   1.782492   0.000000
     9  H    1.088694   1.777241   1.783375   0.000000
    10  C    3.125040   2.876867   3.371411   4.139919   0.000000
    11  H    2.889457   2.396874   3.007517   3.934194   1.090272
    12  H    3.384218   3.004741   3.927339   4.249409   1.090720
    13  O    3.743981   4.122521   4.032724   4.471708   2.415381
    14  C    4.640915   5.194107   4.715666   5.305695   3.522566
    15  C    4.994984   5.751753   5.063546   5.421392   4.656193
    16  C    5.682658   6.141712   5.601800   6.462348   4.024408
    17  C    6.225210   7.031812   6.160303   6.619594   5.869221
    18  C    6.790364   7.353739   6.609229   7.499436   5.374864
    19  C    7.027969   7.746247   6.857037   7.570973   6.170504
    20  F    4.490261   5.331084   4.723484   4.672200   4.874512
    21  F    5.908280   6.150327   5.824182   6.821682   3.609724
    22  F    6.871852   7.774679   6.816798   7.082426   6.972979
    23  F    7.856865   8.343733   7.602261   8.637775   6.146494
    24  F    8.251505   9.007815   8.016715   8.754629   7.463543
    25  O    4.471350   4.253712   4.536236   5.512467   1.430000
    26  H    5.065610   4.670753   5.222401   6.086523   1.970533
                   11         12         13         14         15
    11  H    0.000000
    12  H    1.783413   0.000000
    13  O    3.388045   2.583583   0.000000
    14  C    4.437140   3.863482   1.336840   0.000000
    15  C    5.488862   4.935306   2.378426   1.391928   0.000000
    16  C    4.913981   4.507849   2.383882   1.392717   2.374458
    17  C    6.684678   6.225540   3.648336   2.428198   1.383066
    18  C    6.214371   5.887808   3.648925   2.423920   2.751745
    19  C    6.996859   6.629163   4.142792   2.806468   2.391483
    20  F    5.618745   4.998829   2.736207   2.350470   1.333959
    21  F    4.462950   4.133961   2.750650   2.351790   3.595113
    22  F    7.742532   7.281652   4.731919   3.636039   2.353849
    23  F    6.937016   6.712454   4.736119   3.632792   4.080578
    24  F    8.264192   7.946932   5.469989   4.133764   3.605735
    25  O    2.055245   2.058527   2.836474   3.611243   4.946089
    26  H    2.409377   2.226836   3.572772   4.419816   5.769462
                   16         17         18         19         20
    16  C    0.000000
    17  C    2.760316   0.000000
    18  C    1.383228   2.393235   0.000000
    19  C    2.397020   1.383908   1.384765   0.000000
    20  F    3.596860   2.338441   4.085484   3.600807   0.000000
    21  F    1.328797   4.088936   2.334307   3.600089   4.699495
    22  F    4.088844   1.328540   3.606534   2.348483   2.698666
    23  F    2.352613   3.604776   1.328834   2.346581   5.414284
    24  F    3.609119   2.350756   2.350681   1.327304   4.688872
    25  O    3.598774   5.967990   4.897412   5.947974   5.503447
    26  H    4.361907   6.801223   5.644368   6.748542   6.294520
                   21         22         23         24         25
    21  F    0.000000
    22  F    5.417471   0.000000
    23  F    2.693863   4.694629   0.000000
    24  F    4.684845   2.715029   2.709713   0.000000
    25  O    2.756549   7.206224   5.400309   7.170986   0.000000
    26  H    3.389060   8.047821   6.048126   7.957140   0.960000
                   26
    26  H    0.000000
 Stoichiometry    C9H8F5NO3
 Framework group  C1[X(C9H8F5NO3)]
 Deg. of freedom    72
 Full point group                 C1      NOp   1
 Largest Abelian subgroup         C1      NOp   1
 Largest concise Abelian subgroup C1      NOp   1
                         Standard orientation:                         
 ---------------------------------------------------------------------
 Center     Atomic      Atomic             Coordinates (Angstroms)
 Number     Number       Type             X           Y           Z
 ---------------------------------------------------------------------
      1          1           0        2.030302   -2.033139    0.137358
      2          8           0        1.694500    0.150190    1.371345
      3          6           0        2.164323    0.089472    0.227566
      4          7           0        2.811022   -1.405519   -0.041495
      5          1           0        3.061180   -1.513698   -1.021443
      6          6           0        3.935117   -1.726245    0.848186
      7          1           0        4.801664   -1.135173    0.561438
      8          1           0        3.635568   -1.479062    1.864986
      9          1           0        4.178109   -2.785196    0.778667
     10          6           0        3.183870    1.096027   -0.263700
     11          1           0        4.030674    1.130041    0.422199
     12          1           0        3.536450    0.880334   -1.273073
     13          8           0        1.129532    0.009510   -0.921913
     14          6           0       -0.149528   -0.010346   -0.533646
     15          6           0       -0.860385   -1.204005   -0.448076
     16          6           0       -0.839876    1.160234   -0.228978
     17          6           0       -2.198270   -1.239198   -0.099226
     18          6           0       -2.176628    1.143302    0.126166
     19          6           0       -2.860505   -0.059086    0.190572
     20          9           0       -0.232432   -2.353367   -0.701233
     21          9           0       -0.208978    2.328087   -0.290515
     22          9           0       -2.846854   -2.396805   -0.033618
     23          9           0       -2.810831    2.277089    0.405657
     24          9           0       -4.143936   -0.078819    0.528437
     25          8           0        2.547010    2.376382   -0.262933
     26          1           0        3.079126    2.999269   -0.763397
 ---------------------------------------------------------------------
 Rotational constants (GHZ):           0.6561114           0.2976940           0.2207391
 Leave Link  202 at Wed Aug 28 20:58:42 2024, MaxMem=  8589934592 cpu:               0.0 elap:               0.0
 (Enter /share/apps/g16.b01_avx2/g16/l301.exe)
 Standard basis: def2TZVP (5D, 7F)
 Ernie: Thresh=  0.10000D-02 Tol=  0.10000D-05 Strict=F.
 There are   696 symmetry adapted cartesian basis functions of A   symmetry.
 There are   606 symmetry adapted basis functions of A   symmetry.
   606 basis functions,   982 primitive gaussians,   696 cartesian basis functions
    69 alpha electrons       69 beta electrons
       nuclear repulsion energy      1491.0826147254 Hartrees.
 IExCor= 1009 DFT=T Ex+Corr=PBE1PBE ExCW=0 ScaHFX=  0.250000
 ScaDFX=  0.750000  0.750000  1.000000  1.000000 ScalE2=  1.000000  1.000000
 IRadAn=  99590 IRanWt=     -1 IRanGd=            0 ICorTp=0 IEmpDi=131
 NAtoms=   26 NActive=   26 NUniq=   26 SFac= 1.00D+00 NAtFMM=   60 NAOKFM=F Big=F
 Integral buffers will be    131072 words long.
 Raffenetti 2 integral format.
 Two-electron integral symmetry is turned on.
 R6Disp:  Grimme-D3 Dispersion energy=       -0.0167270705 Hartrees.
 Nuclear repulsion after empirical dispersion term =     1491.0658876550 Hartrees.
 ------------------------------------------------------------------------------
 Polarizable Continuum Model (PCM)
 =================================
 Model                : PCM.
 Atomic radii         : UFF (Universal Force Field).
 Polarization charges : Total charges.
 Charge compensation  : None.
 Solution method      : On-the-fly selection.
 Cavity type          : Scaled VdW (van der Waals Surface) (Alpha=1.100).
 Cavity algorithm     : GePol (No added spheres)
                        Default sphere list used, NSphG=   26.
                        Lebedev-Laikov grids with approx.  5.0 points / Ang**2.
                        Smoothing algorithm: York/Karplus (Gamma=1.0000).
                        Polarization charges: spherical gaussians, with
                                              point-specific exponents (IZeta= 3).
                        Self-potential: point-specific (ISelfS= 7).
                        Self-field    : sphere-specific E.n sum rule (ISelfD= 2).
 1st derivatives      : Analytical E(r).r(x)/FMM algorithm (CHGder, D1EAlg=3).
                        Cavity 1st derivative terms included.
 Solvent              : Water, Eps=  78.355300 Eps(inf)=   1.777849
 ------------------------------------------------------------------------------
 GePol: Number of generator spheres                  =      26
 GePol: Total number of spheres                      =      26
 GePol: Number of exposed spheres                    =      26 (100.00%)
 GePol: Number of points                             =    2196
 GePol: Average weight of points                     =       0.13
 GePol: Minimum weight of points                     =   0.10D-09
 GePol: Maximum weight of points                     =    0.20577
 GePol: Number of points with low weight             =     112
 GePol: Fraction of low-weight points (<1% of avg)   =       5.10%
 GePol: Cavity surface area                          =    281.068 Ang**2
 GePol: Cavity volume                                =    298.269 Ang**3
 Leave Link  301 at Wed Aug 28 20:58:42 2024, MaxMem=  8589934592 cpu:               0.8 elap:               0.0
 (Enter /share/apps/g16.b01_avx2/g16/l302.exe)
 NPDir=0 NMtPBC=     1 NCelOv=     1 NCel=       1 NClECP=     1 NCelD=      1
         NCelK=      1 NCelE2=     1 NClLst=     1 CellRange=     0.0.
 One-electron integrals computed using PRISM.
 One-electron integral symmetry used in STVInt
   1 Symmetry operations used in ECPInt.
 ECPInt:  NShTT=   26565 NPrTT=   83856 LenC2=   23345 LenP2D=   52667.
 LDataN:  DoStor=T MaxTD1= 6 Len=  172
 NBasis=   606 RedAO= T EigKep=  1.45D-05  NBF=   606
 NBsUse=   606 1.00D-06 EigRej= -1.00D+00 NBFU=   606
 Precomputing XC quadrature grid using
 IXCGrd= 4 IRadAn=       99590 IRanWt=          -1 IRanGd=           0 AccXCQ= 0.00D+00.
 Generated NRdTot=       0 NPtTot=           0 NUsed=           0 NTot=          32
 NSgBfM=   687   687   687   687   687 MxSgAt=    26 MxSgA2=    26.
 Leave Link  302 at Wed Aug 28 20:58:42 2024, MaxMem=  8589934592 cpu:              10.1 elap:               0.4
 (Enter /share/apps/g16.b01_avx2/g16/l303.exe)
 DipDrv:  MaxL=1.
 Leave Link  303 at Wed Aug 28 20:58:42 2024, MaxMem=  8589934592 cpu:               1.2 elap:               0.1
 (Enter /share/apps/g16.b01_avx2/g16/l401.exe)
 ExpMin= 9.52D-02 ExpMax= 3.55D+04 ExpMxC= 1.21D+03 IAcc=4 IRadAn=    199590 AccDes= 0.00D+00
 Harris functional with IExCor= 1009 and IRadAn=  199590 diagonalized for initial guess.
 HarFok:  IExCor= 1009 AccDes= 0.00D+00 IRadAn=    199590 IDoV= 1 UseB2=F ITyADJ=14
 ICtDFT=  3500011 ScaDFX=  1.000000  1.000000  1.000000  1.000000
 FoFCou: FMM=F IPFlag=           0 FMFlag=      100000 FMFlg1=           0
         NFxFlg=           0 DoJE=T BraDBF=F KetDBF=T FulRan=T
         wScrn=  0.000000 ICntrl=       500 IOpCl=  0 I1Cent=   200000004 NGrid=           0
         NMat0=    1 NMatS0=      1 NMatT0=    0 NMatD0=    1 NMtDS0=    0 NMtDT0=    0
 Petite list used in FoFCou.
 Harris En= -1126.74217268016    
 JPrj=0 DoOrth=F DoCkMO=F.
 Leave Link  401 at Wed Aug 28 20:58:45 2024, MaxMem=  8589934592 cpu:              67.1 elap:               2.8
 (Enter /share/apps/g16.b01_avx2/g16/l502.exe)
 Integral symmetry usage will be decided dynamically.
 Closed shell SCF:
 Using DIIS extrapolation, IDIIS=  1040.
 NGot=  8589934592 LenX=  8588943072 LenY=  8588457960
 Requested convergence on RMS density matrix=1.00D-08 within 128 cycles.
 Requested convergence on MAX density matrix=1.00D-06.
 Requested convergence on             energy=1.00D-06.
 No special actions if energy rises.
 Fock matrices will be formed incrementally for  20 cycles.

 Cycle   1  Pass 1  IDiag  1:
 FoFJK:  IHMeth= 1 ICntrl=       0 DoSepK=F KAlg= 0 I1Cent=           0 FoldK=F
 IRaf= 820000000 NMat=       1 IRICut=       1 DoRegI=T DoRafI=F ISym2E= 0 IDoP0=0 IntGTp=1.
 FoFCou: FMM=F IPFlag=           0 FMFlag=      100000 FMFlg1=           0
         NFxFlg=           0 DoJE=F BraDBF=F KetDBF=F FulRan=T
         wScrn=  0.000000 ICntrl=         0 IOpCl=  0 I1Cent=           0 NGrid=           0
         NMat0=    1 NMatS0=      1 NMatT0=    0 NMatD0=    1 NMtDS0=    0 NMtDT0=    0
 Symmetry not used in FoFCou.
 Inv3:  Mode=1 IEnd=    14467248.
 Iteration    1 A*A^-1 deviation from unit magnitude is 2.66D-15 for     51.
 Iteration    1 A*A^-1 deviation from orthogonality  is 1.86D-15 for   1500    496.
 Iteration    1 A^-1*A deviation from unit magnitude is 2.78D-15 for     51.
 Iteration    1 A^-1*A deviation from orthogonality  is 1.61D-15 for   1736    861.
 E= -1126.38692008143    
 DIIS: error= 1.35D-02 at cycle   1 NSaved=   1.
 NSaved= 1 IEnMin= 1 EnMin= -1126.38692008143     IErMin= 1 ErrMin= 1.35D-02
 ErrMax= 1.35D-02  0.00D+00 EMaxC= 1.00D-01 BMatC= 3.91D-01 BMatP= 3.91D-01
 IDIUse=3 WtCom= 8.65D-01 WtEn= 1.35D-01
 Coeff-Com:  0.100D+01
 Coeff-En:   0.100D+01
 Coeff:      0.100D+01
 Gap=     0.263 Goal=   None    Shift=    0.000
 GapD=    0.263 DampG=1.000 DampE=0.500 DampFc=0.5000 IDamp=-1.
 Damping current iteration by 5.00D-01
 RMSDP=4.26D-03 MaxDP=5.92D-01              OVMax= 2.64D-01

 Cycle   2  Pass 1  IDiag  1:
 RMSU=  2.13D-03    CP:  1.02D+00
 E= -1126.47859874042     Delta-E=       -0.091678658984 Rises=F Damp=T
 DIIS: error= 4.90D-03 at cycle   2 NSaved=   2.
 NSaved= 2 IEnMin= 2 EnMin= -1126.47859874042     IErMin= 2 ErrMin= 4.90D-03
 ErrMax= 4.90D-03  0.00D+00 EMaxC= 1.00D-01 BMatC= 4.63D-02 BMatP= 3.91D-01
 IDIUse=3 WtCom= 9.51D-01 WtEn= 4.90D-02
 Coeff-Com:  0.120D+00 0.880D+00
 Coeff-En:   0.252D+00 0.748D+00
 Coeff:      0.127D+00 0.873D+00
 Gap=     0.285 Goal=   None    Shift=    0.000
 RMSDP=1.41D-03 MaxDP=2.19D-01 DE=-9.17D-02 OVMax= 1.61D-01

 Cycle   3  Pass 1  IDiag  1:
 RMSU=  7.24D-04    CP:  9.96D-01  4.35D-01
 E= -1126.62473505027     Delta-E=       -0.146136309855 Rises=F Damp=F
 DIIS: error= 4.70D-03 at cycle   3 NSaved=   3.
 NSaved= 3 IEnMin= 3 EnMin= -1126.62473505027     IErMin= 3 ErrMin= 4.70D-03
 ErrMax= 4.70D-03  0.00D+00 EMaxC= 1.00D-01 BMatC= 3.45D-02 BMatP= 4.63D-02
 IDIUse=3 WtCom= 9.53D-01 WtEn= 4.70D-02
 Coeff-Com: -0.351D-01 0.461D+00 0.574D+00
 Coeff-En:   0.000D+00 0.000D+00 0.100D+01
 Coeff:     -0.334D-01 0.440D+00 0.594D+00
 Gap=     0.245 Goal=   None    Shift=    0.000
 RMSDP=3.52D-04 MaxDP=2.17D-02 DE=-1.46D-01 OVMax= 4.94D-02

 Cycle   4  Pass 1  IDiag  1:
 RMSU=  3.14D-04    CP:  9.94D-01  4.83D-01  8.34D-01
 E= -1126.64612883416     Delta-E=       -0.021393783884 Rises=F Damp=F
 DIIS: error= 1.76D-03 at cycle   4 NSaved=   4.
 NSaved= 4 IEnMin= 4 EnMin= -1126.64612883416     IErMin= 4 ErrMin= 1.76D-03
 ErrMax= 1.76D-03  0.00D+00 EMaxC= 1.00D-01 BMatC= 4.63D-03 BMatP= 3.45D-02
 IDIUse=3 WtCom= 9.82D-01 WtEn= 1.76D-02
 Coeff-Com: -0.335D-01 0.130D+00 0.315D+00 0.588D+00
 Coeff-En:   0.000D+00 0.000D+00 0.925D-01 0.907D+00
 Coeff:     -0.329D-01 0.128D+00 0.311D+00 0.594D+00
 Gap=     0.242 Goal=   None    Shift=    0.000
 RMSDP=1.45D-04 MaxDP=1.27D-02 DE=-2.14D-02 OVMax= 1.35D-02

 Cycle   5  Pass 1  IDiag  1:
 RMSU=  8.15D-05    CP:  9.95D-01  5.03D-01  9.23D-01  7.10D-01
 E= -1126.64933798617     Delta-E=       -0.003209152016 Rises=F Damp=F
 DIIS: error= 4.59D-04 at cycle   5 NSaved=   5.
 NSaved= 5 IEnMin= 5 EnMin= -1126.64933798617     IErMin= 5 ErrMin= 4.59D-04
 ErrMax= 4.59D-04  0.00D+00 EMaxC= 1.00D-01 BMatC= 4.69D-04 BMatP= 4.63D-03
 IDIUse=3 WtCom= 9.95D-01 WtEn= 4.59D-03
 Coeff-Com: -0.158D-01 0.392D-01 0.124D+00 0.331D+00 0.521D+00
 Coeff-En:   0.000D+00 0.000D+00 0.000D+00 0.109D-01 0.989D+00
 Coeff:     -0.157D-01 0.390D-01 0.124D+00 0.330D+00 0.523D+00
 Gap=     0.242 Goal=   None    Shift=    0.000
 RMSDP=4.53D-05 MaxDP=3.17D-03 DE=-3.21D-03 OVMax= 5.06D-03

 Cycle   6  Pass 1  IDiag  1:
 RMSU=  2.03D-05    CP:  9.95D-01  4.98D-01  9.04D-01  7.54D-01  5.84D-01
 E= -1126.64966329917     Delta-E=       -0.000325312994 Rises=F Damp=F
 DIIS: error= 1.53D-04 at cycle   6 NSaved=   6.
 NSaved= 6 IEnMin= 6 EnMin= -1126.64966329917     IErMin= 6 ErrMin= 1.53D-04
 ErrMax= 1.53D-04  0.00D+00 EMaxC= 1.00D-01 BMatC= 2.97D-05 BMatP= 4.69D-04
 IDIUse=3 WtCom= 9.98D-01 WtEn= 1.53D-03
 Coeff-Com: -0.590D-02 0.107D-01 0.382D-01 0.124D+00 0.271D+00 0.563D+00
 Coeff-En:   0.000D+00 0.000D+00 0.000D+00 0.000D+00 0.000D+00 0.100D+01
 Coeff:     -0.589D-02 0.107D-01 0.381D-01 0.123D+00 0.270D+00 0.564D+00
 Gap=     0.242 Goal=   None    Shift=    0.000
 RMSDP=1.04D-05 MaxDP=7.01D-04 DE=-3.25D-04 OVMax= 1.20D-03

 Cycle   7  Pass 1  IDiag  1:
 RMSU=  7.51D-06    CP:  9.95D-01  4.99D-01  9.05D-01  7.42D-01  5.99D-01
                    CP:  7.36D-01
 E= -1126.64968533330     Delta-E=       -0.000022034131 Rises=F Damp=F
 DIIS: error= 3.37D-05 at cycle   7 NSaved=   7.
 NSaved= 7 IEnMin= 7 EnMin= -1126.64968533330     IErMin= 7 ErrMin= 3.37D-05
 ErrMax= 3.37D-05  0.00D+00 EMaxC= 1.00D-01 BMatC= 1.76D-06 BMatP= 2.97D-05
 IDIUse=1 WtCom= 1.00D+00 WtEn= 0.00D+00
 Coeff-Com: -0.147D-02 0.185D-02 0.711D-02 0.297D-01 0.818D-01 0.255D+00
 Coeff-Com:  0.626D+00
 Coeff:     -0.147D-02 0.185D-02 0.711D-02 0.297D-01 0.818D-01 0.255D+00
 Coeff:      0.626D+00
 Gap=     0.242 Goal=   None    Shift=    0.000
 RMSDP=3.01D-06 MaxDP=3.07D-04 DE=-2.20D-05 OVMax= 2.42D-04

 Cycle   8  Pass 1  IDiag  1:
 RMSU=  1.65D-06    CP:  9.95D-01  4.99D-01  9.05D-01  7.45D-01  6.07D-01
                    CP:  7.90D-01  7.99D-01
 E= -1126.64968648911     Delta-E=       -0.000001155816 Rises=F Damp=F
 DIIS: error= 1.04D-05 at cycle   8 NSaved=   8.
 NSaved= 8 IEnMin= 8 EnMin= -1126.64968648911     IErMin= 8 ErrMin= 1.04D-05
 ErrMax= 1.04D-05  0.00D+00 EMaxC= 1.00D-01 BMatC= 1.77D-07 BMatP= 1.76D-06
 IDIUse=1 WtCom= 1.00D+00 WtEn= 0.00D+00
 Coeff-Com: -0.138D-03-0.563D-04-0.342D-03 0.175D-02 0.111D-01 0.603D-01
 Coeff-Com:  0.287D+00 0.640D+00
 Coeff:     -0.138D-03-0.563D-04-0.342D-03 0.175D-02 0.111D-01 0.603D-01
 Coeff:      0.287D+00 0.640D+00
 Gap=     0.242 Goal=   None    Shift=    0.000
 RMSDP=7.34D-07 MaxDP=4.05D-05 DE=-1.16D-06 OVMax= 1.01D-04

 Cycle   9  Pass 1  IDiag  1:
 RMSU=  5.14D-07    CP:  9.95D-01  4.98D-01  9.05D-01  7.45D-01  6.07D-01
                    CP:  7.95D-01  8.55D-01  8.44D-01
 E= -1126.64968661133     Delta-E=       -0.000000122221 Rises=F Damp=F
 DIIS: error= 3.67D-06 at cycle   9 NSaved=   9.
 NSaved= 9 IEnMin= 9 EnMin= -1126.64968661133     IErMin= 9 ErrMin= 3.67D-06
 ErrMax= 3.67D-06  0.00D+00 EMaxC= 1.00D-01 BMatC= 1.99D-08 BMatP= 1.77D-07
 IDIUse=1 WtCom= 1.00D+00 WtEn= 0.00D+00
 Coeff-Com:  0.763D-04-0.198D-03-0.863D-03-0.214D-02-0.327D-02 0.198D-03
 Coeff-Com:  0.618D-01 0.309D+00 0.635D+00
 Coeff:      0.763D-04-0.198D-03-0.863D-03-0.214D-02-0.327D-02 0.198D-03
 Coeff:      0.618D-01 0.309D+00 0.635D+00
 Gap=     0.242 Goal=   None    Shift=    0.000
 RMSDP=2.65D-07 MaxDP=1.24D-05 DE=-1.22D-07 OVMax= 2.91D-05

 Cycle  10  Pass 1  IDiag  1:
 RMSU=  1.47D-07    CP:  9.95D-01  4.98D-01  9.05D-01  7.45D-01  6.06D-01
                    CP:  7.98D-01  8.60D-01  9.22D-01  7.91D-01
 E= -1126.64968662788     Delta-E=       -0.000000016551 Rises=F Damp=F
 DIIS: error= 6.24D-07 at cycle  10 NSaved=  10.
 NSaved=10 IEnMin=10 EnMin= -1126.64968662788     IErMin=10 ErrMin= 6.24D-07
 ErrMax= 6.24D-07  0.00D+00 EMaxC= 1.00D-01 BMatC= 7.03D-10 BMatP= 1.99D-08
 IDIUse=1 WtCom= 1.00D+00 WtEn= 0.00D+00
 Coeff-Com:  0.302D-04-0.739D-04-0.333D-03-0.869D-03-0.158D-02-0.151D-02
 Coeff-Com:  0.171D-01 0.107D+00 0.260D+00 0.619D+00
 Coeff:      0.302D-04-0.739D-04-0.333D-03-0.869D-03-0.158D-02-0.151D-02
 Coeff:      0.171D-01 0.107D+00 0.260D+00 0.619D+00
 Gap=     0.242 Goal=   None    Shift=    0.000
 RMSDP=6.61D-08 MaxDP=4.63D-06 DE=-1.66D-08 OVMax= 1.08D-05

 Cycle  11  Pass 1  IDiag  1:
 RMSU=  4.61D-08    CP:  9.95D-01  4.98D-01  9.05D-01  7.45D-01  6.06D-01
                    CP:  7.98D-01  8.65D-01  9.21D-01  8.16D-01  8.31D-01
 E= -1126.64968662840     Delta-E=       -0.000000000517 Rises=F Damp=F
 DIIS: error= 3.77D-07 at cycle  11 NSaved=  11.
 NSaved=11 IEnMin=11 EnMin= -1126.64968662840     IErMin=11 ErrMin= 3.77D-07
 ErrMax= 3.77D-07  0.00D+00 EMaxC= 1.00D-01 BMatC= 1.74D-10 BMatP= 7.03D-10
 IDIUse=1 WtCom= 1.00D+00 WtEn= 0.00D+00
 Coeff-Com:  0.367D-05-0.515D-05-0.425D-04-0.114D-03-0.331D-03-0.881D-03
 Coeff-Com: -0.208D-02 0.290D-02 0.268D-01 0.337D+00 0.637D+00
 Coeff:      0.367D-05-0.515D-05-0.425D-04-0.114D-03-0.331D-03-0.881D-03
 Coeff:     -0.208D-02 0.290D-02 0.268D-01 0.337D+00 0.637D+00
 Gap=     0.242 Goal=   None    Shift=    0.000
 RMSDP=2.76D-08 MaxDP=3.09D-06 DE=-5.17D-10 OVMax= 2.89D-06

 Cycle  12  Pass 1  IDiag  1:
 RMSU=  1.27D-08    CP:  9.95D-01  4.98D-01  9.05D-01  7.45D-01  6.06D-01
                    CP:  7.98D-01  8.64D-01  9.28D-01  8.23D-01  9.06D-01
                    CP:  8.70D-01
 E= -1126.64968662855     Delta-E=       -0.000000000148 Rises=F Damp=F
 DIIS: error= 5.95D-08 at cycle  12 NSaved=  12.
 NSaved=12 IEnMin=12 EnMin= -1126.64968662855     IErMin=12 ErrMin= 5.95D-08
 ErrMax= 5.95D-08  0.00D+00 EMaxC= 1.00D-01 BMatC= 5.85D-12 BMatP= 1.74D-10
 IDIUse=1 WtCom= 1.00D+00 WtEn= 0.00D+00
 Coeff-Com: -0.538D-06 0.291D-05 0.220D-05 0.819D-05-0.466D-04-0.223D-03
 Coeff-Com: -0.191D-02-0.594D-02-0.779D-02 0.874D-01 0.224D+00 0.704D+00
 Coeff:     -0.538D-06 0.291D-05 0.220D-05 0.819D-05-0.466D-04-0.223D-03
 Coeff:     -0.191D-02-0.594D-02-0.779D-02 0.874D-01 0.224D+00 0.704D+00
 Gap=     0.242 Goal=   None    Shift=    0.000
 RMSDP=7.74D-09 MaxDP=4.75D-07 DE=-1.48D-10 OVMax= 5.81D-07

 Error on total polarization charges =  0.00886
 SCF Done:  E(RPBE1PBE) =  -1126.64968663     A.U. after   12 cycles
            NFock= 12  Conv=0.77D-08     -V/T= 2.0038
 KE= 1.122389735977D+03 PE=-5.643065455549D+03 EE= 1.902960145289D+03
 Leave Link  502 at Wed Aug 28 21:00:08 2024, MaxMem=  8589934592 cpu:            1970.8 elap:              82.5
 (Enter /share/apps/g16.b01_avx2/g16/l601.exe)
 Copying SCF densities to generalized density rwf, IOpCl= 0 IROHF=0.

 **********************************************************************

            Population analysis using the SCF Density.

 **********************************************************************

 Orbital symmetries:
       Occupied  (A) (A) (A) (A) (A) (A) (A) (A) (A) (A) (A) (A)
                 (A) (A) (A) (A) (A) (A) (A) (A) (A) (A) (A) (A)
                 (A) (A) (A) (A) (A) (A) (A) (A) (A) (A) (A) (A)
                 (A) (A) (A) (A) (A) (A) (A) (A) (A) (A) (A) (A)
                 (A) (A) (A) (A) (A) (A) (A) (A) (A) (A) (A) (A)
                 (A) (A) (A) (A) (A) (A) (A) (A) (A)
       Virtual   (A) (A) (A) (A) (A) (A) (A) (A) (A) (A) (A) (A)
                 (A) (A) (A) (A) (A) (A) (A) (A) (A) (A) (A) (A)
                 (A) (A) (A) (A) (A) (A) (A) (A) (A) (A) (A) (A)
                 (A) (A) (A) (A) (A) (A) (A) (A) (A) (A) (A) (A)
                 (A) (A) (A) (A) (A) (A) (A) (A) (A) (A) (A) (A)
                 (A) (A) (A) (A) (A) (A) (A) (A) (A) (A) (A) (A)
                 (A) (A) (A) (A) (A) (A) (A) (A) (A) (A) (A) (A)
                 (A) (A) (A) (A) (A) (A) (A) (A) (A) (A) (A) (A)
                 (A) (A) (A) (A) (A) (A) (A) (A) (A) (A) (A) (A)
                 (A) (A) (A) (A) (A) (A) (A) (A) (A) (A) (A) (A)
                 (A) (A) (A) (A) (A) (A) (A) (A) (A) (A) (A) (A)
                 (A) (A) (A) (A) (A) (A) (A) (A) (A) (A) (A) (A)
                 (A) (A) (A) (A) (A) (A) (A) (A) (A) (A) (A) (A)
                 (A) (A) (A) (A) (A) (A) (A) (A) (A) (A) (A) (A)
                 (A) (A) (A) (A) (A) (A) (A) (A) (A) (A) (A) (A)
                 (A) (A) (A) (A) (A) (A) (A) (A) (A) (A) (A) (A)
                 (A) (A) (A) (A) (A) (A) (A) (A) (A) (A) (A) (A)
                 (A) (A) (A) (A) (A) (A) (A) (A) (A) (A) (A) (A)
                 (A) (A) (A) (A) (A) (A) (A) (A) (A) (A) (A) (A)
                 (A) (A) (A) (A) (A) (A) (A) (A) (A) (A) (A) (A)
                 (A) (A) (A) (A) (A) (A) (A) (A) (A) (A) (A) (A)
                 (A) (A) (A) (A) (A) (A) (A) (A) (A) (A) (A) (A)
                 (A) (A) (A) (A) (A) (A) (A) (A) (A) (A) (A) (A)
                 (A) (A) (A) (A) (A) (A) (A) (A) (A) (A) (A) (A)
                 (A) (A) (A) (A) (A) (A) (A) (A) (A) (A) (A) (A)
                 (A) (A) (A) (A) (A) (A) (A) (A) (A) (A) (A) (A)
                 (A) (A) (A) (A) (A) (A) (A) (A) (A) (A) (A) (A)
                 (A) (A) (A) (A) (A) (A) (A) (A) (A) (A) (A) (A)
                 (A) (A) (A) (A) (A) (A) (A) (A) (A) (A) (A) (A)
                 (A) (A) (A) (A) (A) (A) (A) (A) (A) (A) (A) (A)
                 (A) (A) (A) (A) (A) (A) (A) (A) (A) (A) (A) (A)
                 (A) (A) (A) (A) (A) (A) (A) (A) (A) (A) (A) (A)
                 (A) (A) (A) (A) (A) (A) (A) (A) (A) (A) (A) (A)
                 (A) (A) (A) (A) (A) (A) (A) (A) (A) (A) (A) (A)
                 (A) (A) (A) (A) (A) (A) (A) (A) (A) (A) (A) (A)
                 (A) (A) (A) (A) (A) (A) (A) (A) (A) (A) (A) (A)
                 (A) (A) (A) (A) (A) (A) (A) (A) (A) (A) (A) (A)
                 (A) (A) (A) (A) (A) (A) (A) (A) (A) (A) (A) (A)
                 (A) (A) (A) (A) (A) (A) (A) (A) (A) (A) (A) (A)
                 (A) (A) (A) (A) (A) (A) (A) (A) (A) (A) (A) (A)
                 (A) (A) (A) (A) (A) (A) (A) (A) (A) (A) (A) (A)
                 (A) (A) (A) (A) (A) (A) (A) (A) (A) (A) (A) (A)
                 (A) (A) (A) (A) (A) (A) (A) (A) (A) (A) (A) (A)
                 (A) (A) (A) (A) (A) (A) (A) (A) (A) (A) (A) (A)
                 (A) (A) (A) (A) (A) (A) (A) (A) (A)
 The electronic state is 1-A.
 Alpha  occ. eigenvalues --  -24.81524 -24.81400 -24.81319 -24.81293 -24.80125
 Alpha  occ. eigenvalues --  -19.22895 -19.20704 -19.15162 -14.47331 -10.36223
 Alpha  occ. eigenvalues --  -10.33958 -10.33791 -10.33668 -10.33298 -10.33059
 Alpha  occ. eigenvalues --  -10.30674 -10.27287 -10.26692  -1.30668  -1.29930
 Alpha  occ. eigenvalues --   -1.29209  -1.28492  -1.27910  -1.10920  -1.05161
 Alpha  occ. eigenvalues --   -1.03234  -0.98856  -0.92303  -0.80570  -0.80292
 Alpha  occ. eigenvalues --   -0.75713  -0.73385  -0.69179  -0.68769  -0.62925
 Alpha  occ. eigenvalues --   -0.62179  -0.61650  -0.59370  -0.58563  -0.57210
 Alpha  occ. eigenvalues --   -0.56718  -0.56276  -0.55155  -0.54807  -0.53172
 Alpha  occ. eigenvalues --   -0.52369  -0.51391  -0.49586  -0.49321  -0.49207
 Alpha  occ. eigenvalues --   -0.48315  -0.47495  -0.47046  -0.46785  -0.45747
 Alpha  occ. eigenvalues --   -0.44061  -0.43203  -0.42294  -0.42014  -0.41297
 Alpha  occ. eigenvalues --   -0.40730  -0.36925  -0.36434  -0.32350  -0.30158
 Alpha  occ. eigenvalues --   -0.28964  -0.26982  -0.26858  -0.25927
 Alpha virt. eigenvalues --   -0.01727  -0.00980  -0.00823   0.03546   0.04322
 Alpha virt. eigenvalues --    0.07391   0.07733   0.08943   0.09725   0.11345
 Alpha virt. eigenvalues --    0.11859   0.11996   0.12521   0.13259   0.14026
 Alpha virt. eigenvalues --    0.15775   0.15899   0.17608   0.18026   0.18606
 Alpha virt. eigenvalues --    0.18978   0.20121   0.20628   0.21203   0.21476
 Alpha virt. eigenvalues --    0.23369   0.24103   0.24336   0.25176   0.26309
 Alpha virt. eigenvalues --    0.27016   0.28555   0.29102   0.29546   0.30424
 Alpha virt. eigenvalues --    0.30832   0.31308   0.31717   0.32738   0.33436
 Alpha virt. eigenvalues --    0.34392   0.35219   0.35944   0.36762   0.37190
 Alpha virt. eigenvalues --    0.38741   0.39581   0.40017   0.40238   0.40673
 Alpha virt. eigenvalues --    0.40977   0.41017   0.41890   0.42838   0.43347
 Alpha virt. eigenvalues --    0.43755   0.44313   0.44646   0.44902   0.45510
 Alpha virt. eigenvalues --    0.46032   0.46478   0.47165   0.47401   0.48301
 Alpha virt. eigenvalues --    0.49508   0.50584   0.51412   0.52249   0.53199
 Alpha virt. eigenvalues --    0.54454   0.54748   0.55760   0.56921   0.57757
 Alpha virt. eigenvalues --    0.58333   0.60937   0.61560   0.62713   0.63379
 Alpha virt. eigenvalues --    0.64196   0.65265   0.66199   0.67148   0.67837
 Alpha virt. eigenvalues --    0.69479   0.70745   0.71809   0.72053   0.72983
 Alpha virt. eigenvalues --    0.73511   0.74866   0.75929   0.76202   0.78099
 Alpha virt. eigenvalues --    0.78487   0.79631   0.80988   0.82595   0.83175
 Alpha virt. eigenvalues --    0.83998   0.84152   0.85359   0.85547   0.86408
 Alpha virt. eigenvalues --    0.87211   0.87991   0.88362   0.88995   0.90159
 Alpha virt. eigenvalues --    0.90607   0.92354   0.94222   0.94745   0.95705
 Alpha virt. eigenvalues --    0.97151   0.97552   0.98014   0.99444   1.00460
 Alpha virt. eigenvalues --    1.01260   1.01772   1.02307   1.04284   1.05456
 Alpha virt. eigenvalues --    1.07593   1.08180   1.09412   1.10692   1.11269
 Alpha virt. eigenvalues --    1.13042   1.13627   1.14871   1.16347   1.17583
 Alpha virt. eigenvalues --    1.18385   1.19480   1.20884   1.21518   1.23321
 Alpha virt. eigenvalues --    1.27357   1.27837   1.30440   1.31391   1.32718
 Alpha virt. eigenvalues --    1.33849   1.35548   1.37000   1.38714   1.39676
 Alpha virt. eigenvalues --    1.40637   1.41716   1.43725   1.45045   1.45322
 Alpha virt. eigenvalues --    1.46462   1.47352   1.48057   1.49132   1.51019
 Alpha virt. eigenvalues --    1.52642   1.53552   1.54529   1.56303   1.56413
 Alpha virt. eigenvalues --    1.57245   1.57903   1.60220   1.62359   1.62592
 Alpha virt. eigenvalues --    1.63534   1.63897   1.66558   1.69006   1.71919
 Alpha virt. eigenvalues --    1.72545   1.72943   1.73780   1.75584   1.76114
 Alpha virt. eigenvalues --    1.79097   1.79745   1.79962   1.81441   1.82748
 Alpha virt. eigenvalues --    1.83338   1.84236   1.86501   1.87372   1.89853
 Alpha virt. eigenvalues --    1.91267   1.92454   1.93555   1.95168   1.96209
 Alpha virt. eigenvalues --    1.96960   1.97729   1.98163   1.99979   2.00558
 Alpha virt. eigenvalues --    2.02719   2.03422   2.05078   2.05852   2.06328
 Alpha virt. eigenvalues --    2.06816   2.07481   2.08700   2.10124   2.11070
 Alpha virt. eigenvalues --    2.14412   2.15094   2.16110   2.16282   2.18878
 Alpha virt. eigenvalues --    2.19322   2.21001   2.21901   2.22313   2.23152
 Alpha virt. eigenvalues --    2.24998   2.26072   2.27451   2.28265   2.30450
 Alpha virt. eigenvalues --    2.30518   2.32420   2.32835   2.34031   2.34635
 Alpha virt. eigenvalues --    2.36349   2.37958   2.39692   2.41742   2.43312
 Alpha virt. eigenvalues --    2.44022   2.45108   2.47633   2.47751   2.50266
 Alpha virt. eigenvalues --    2.50756   2.52630   2.54404   2.56211   2.57424
 Alpha virt. eigenvalues --    2.57651   2.58239   2.59407   2.60707   2.62343
 Alpha virt. eigenvalues --    2.62763   2.63614   2.63794   2.64828   2.66121
 Alpha virt. eigenvalues --    2.66490   2.69154   2.70026   2.71277   2.74582
 Alpha virt. eigenvalues --    2.75573   2.78294   2.79311   2.79463   2.80762
 Alpha virt. eigenvalues --    2.81594   2.82542   2.83960   2.84428   2.85144
 Alpha virt. eigenvalues --    2.85757   2.86825   2.88758   2.89161   2.89679
 Alpha virt. eigenvalues --    2.91631   2.92185   2.92777   2.93182   2.93807
 Alpha virt. eigenvalues --    2.95456   2.95959   2.96297   2.98339   2.99917
 Alpha virt. eigenvalues --    3.01166   3.02469   3.02975   3.03923   3.05997
 Alpha virt. eigenvalues --    3.07236   3.07536   3.09262   3.10205   3.11398
 Alpha virt. eigenvalues --    3.12419   3.13900   3.14181   3.15393   3.15962
 Alpha virt. eigenvalues --    3.17513   3.17936   3.18882   3.20084   3.20557
 Alpha virt. eigenvalues --    3.20810   3.22036   3.23011   3.23384   3.24355
 Alpha virt. eigenvalues --    3.24823   3.27125   3.29258   3.30749   3.31476
 Alpha virt. eigenvalues --    3.32153   3.33430   3.36118   3.36983   3.38267
 Alpha virt. eigenvalues --    3.39206   3.41865   3.42251   3.43826   3.44085
 Alpha virt. eigenvalues --    3.45053   3.46052   3.46124   3.46751   3.47988
 Alpha virt. eigenvalues --    3.50179   3.50489   3.51136   3.52385   3.52930
 Alpha virt. eigenvalues --    3.54315   3.56732   3.58154   3.60618   3.61407
 Alpha virt. eigenvalues --    3.63170   3.63588   3.64693   3.67307   3.70472
 Alpha virt. eigenvalues --    3.71273   3.72456   3.75253   3.76171   3.77466
 Alpha virt. eigenvalues --    3.79840   3.81955   3.82662   3.83706   3.84812
 Alpha virt. eigenvalues --    3.86611   3.88685   3.91197   3.95049   3.96385
 Alpha virt. eigenvalues --    3.98213   3.99708   4.01659   4.03056   4.04176
 Alpha virt. eigenvalues --    4.06754   4.07620   4.09659   4.13317   4.13766
 Alpha virt. eigenvalues --    4.14179   4.15876   4.16301   4.17193   4.19175
 Alpha virt. eigenvalues --    4.21257   4.22026   4.22592   4.23838   4.28946
 Alpha virt. eigenvalues --    4.31891   4.33158   4.36267   4.39095   4.39791
 Alpha virt. eigenvalues --    4.40584   4.43078   4.43701   4.46068   4.50175
 Alpha virt. eigenvalues --    4.52778   4.57314   4.59637   4.61097   4.67686
 Alpha virt. eigenvalues --    4.70264   4.72194   4.79519   4.81631   4.82866
 Alpha virt. eigenvalues --    4.85254   4.86000   4.87570   4.90091   4.91796
 Alpha virt. eigenvalues --    4.95786   4.97813   5.01288   5.08860   5.10231
 Alpha virt. eigenvalues --    5.15678   5.16850   5.22321   5.25742   5.27406
 Alpha virt. eigenvalues --    5.29691   5.31768   5.36639   5.37889   5.38379
 Alpha virt. eigenvalues --    5.42959   5.44680   5.46474   5.48296   5.50441
 Alpha virt. eigenvalues --    5.55277   5.57103   5.61283   5.66827   5.70662
 Alpha virt. eigenvalues --    5.73321   5.75802   5.80020   5.85297   5.86892
 Alpha virt. eigenvalues --    5.89734   5.93931   6.06198   6.23564   6.30482
 Alpha virt. eigenvalues --    6.32329   6.38241   6.41223   6.43347   6.49246
 Alpha virt. eigenvalues --    6.51975   6.61334   6.72013   6.72713   6.74690
 Alpha virt. eigenvalues --    6.82545   6.84959   6.85306   6.85648   6.85892
 Alpha virt. eigenvalues --    6.86431   6.86594   6.87099   6.87526   6.87706
 Alpha virt. eigenvalues --    6.89417   6.91743   6.94342   6.96580   6.98050
 Alpha virt. eigenvalues --    7.01116   7.01815   7.02966   7.03717   7.07065
 Alpha virt. eigenvalues --    7.07244   7.09068   7.10496   7.12808   7.14871
 Alpha virt. eigenvalues --    7.17458   7.19160   7.20178   7.20771   7.24486
 Alpha virt. eigenvalues --    7.27045   7.29862   7.29970   7.32609   7.34716
 Alpha virt. eigenvalues --    7.36975   7.41604   7.43949   7.47030   7.50971
 Alpha virt. eigenvalues --    7.67140   7.67780   7.75908   8.09248   8.30993
 Alpha virt. eigenvalues --    8.33503   8.35932   8.37996   8.42957   8.43336
 Alpha virt. eigenvalues --    8.54260   8.56757   8.59265   8.69599   8.73111
 Alpha virt. eigenvalues --    8.76636   8.77588   8.80278   8.81191   8.87632
 Alpha virt. eigenvalues --    8.89804   8.93285   8.94781   9.02242   9.03730
 Alpha virt. eigenvalues --    9.07790   9.10069   9.13087   9.40333  22.28414
 Alpha virt. eigenvalues --   22.42487  22.54645  22.97452  22.98630  23.01883
 Alpha virt. eigenvalues --   23.13694  23.15388  23.75738  32.28969  43.93088
 Alpha virt. eigenvalues --   44.23545  44.57909  57.20400  57.40302  57.46594
 Alpha virt. eigenvalues --   57.54001  57.65295
          Condensed to atoms (all electrons):
               1          2          3          4          5          6
     1  H    0.414713   0.005852  -0.008249   0.342894  -0.019024  -0.018002
     2  O    0.005852   8.056224   0.667233  -0.093440   0.004964  -0.012205
     3  C   -0.008249   0.667233   5.064623   0.076940   0.001396  -0.043956
     4  N    0.342894  -0.093440   0.076940   6.304512   0.342913   0.277949
     5  H   -0.019024   0.004964   0.001396   0.342913   0.408819  -0.022372
     6  C   -0.018002  -0.012205  -0.043956   0.277949  -0.022372   4.917606
     7  H    0.005839   0.000341  -0.008892  -0.029770  -0.005419   0.411974
     8  H   -0.003233   0.018414   0.005655  -0.039966   0.006623   0.399923
     9  H   -0.007160  -0.000171   0.003997  -0.019423  -0.003796   0.400737
    10  C    0.006655  -0.066705   0.164407  -0.014265  -0.005944   0.016540
    11  H   -0.000571   0.002231  -0.091699   0.001626   0.000021   0.004426
    12  H   -0.000259   0.005234  -0.003636   0.007912   0.000539  -0.002166
    13  O   -0.003888  -0.084843   0.154891  -0.028878   0.002422   0.005685
    14  C   -0.005358  -0.040351  -0.159805   0.034770  -0.000775  -0.000549
    15  C    0.001761   0.036554   0.008565  -0.019122   0.002260   0.000529
    16  C    0.000186   0.036784  -0.035654   0.006961  -0.000539  -0.000073
    17  C   -0.000927  -0.004687   0.002420   0.000019   0.000038   0.000100
    18  C   -0.000039  -0.005735  -0.001281   0.000284  -0.000036  -0.000008
    19  C    0.000036   0.000740   0.000580  -0.000144   0.000007  -0.000000
    20  F    0.010087  -0.000645  -0.000851  -0.001879   0.000153  -0.000088
    21  F    0.000001  -0.001021   0.002635  -0.000083  -0.000002   0.000001
    22  F   -0.000018  -0.000001   0.000032  -0.000001  -0.000000   0.000000
    23  F   -0.000000   0.000000   0.000019  -0.000000   0.000000   0.000000
    24  F    0.000000  -0.000000  -0.000002   0.000000   0.000000  -0.000000
    25  O   -0.000183  -0.002004  -0.103191   0.002583  -0.000074  -0.000430
    26  H    0.000025  -0.000419   0.012673  -0.000514  -0.000016   0.000017
               7          8          9         10         11         12
     1  H    0.005839  -0.003233  -0.007160   0.006655  -0.000571  -0.000259
     2  O    0.000341   0.018414  -0.000171  -0.066705   0.002231   0.005234
     3  C   -0.008892   0.005655   0.003997   0.164407  -0.091699  -0.003636
     4  N   -0.029770  -0.039966  -0.019423  -0.014265   0.001626   0.007912
     5  H   -0.005419   0.006623  -0.003796  -0.005944   0.000021   0.000539
     6  C    0.411974   0.399923   0.400737   0.016540   0.004426  -0.002166
     7  H    0.486863  -0.019426  -0.017349   0.006310  -0.003696  -0.000135
     8  H   -0.019426   0.490592  -0.019456  -0.005012  -0.000569   0.000173
     9  H   -0.017349  -0.019456   0.487557  -0.000345   0.000645   0.000072
    10  C    0.006310  -0.005012  -0.000345   4.908475   0.459039   0.378139
    11  H   -0.003696  -0.000569   0.000645   0.459039   0.593317  -0.051533
    12  H   -0.000135   0.000173   0.000072   0.378139  -0.051533   0.604371
    13  O   -0.000029   0.000711   0.000019  -0.042703   0.006850  -0.002239
    14  C    0.000055  -0.000856   0.000117   0.006198   0.000836  -0.003193
    15  C    0.000006   0.000282  -0.000108   0.004524   0.000058  -0.001589
    16  C   -0.000003  -0.000192   0.000006   0.002400   0.000258   0.000274
    17  C   -0.000001   0.000016  -0.000002  -0.000386  -0.000006   0.000052
    18  C   -0.000000   0.000004   0.000001   0.000634   0.000068   0.000035
    19  C    0.000000   0.000003  -0.000001  -0.000060   0.000000  -0.000014
    20  F   -0.000011   0.000010   0.000018   0.000053   0.000001  -0.000003
    21  F    0.000000   0.000001  -0.000000   0.000862  -0.000066  -0.000124
    22  F    0.000000  -0.000000   0.000000   0.000000   0.000000  -0.000000
    23  F   -0.000000  -0.000000  -0.000000  -0.000004  -0.000000   0.000000
    24  F   -0.000000  -0.000000   0.000000   0.000000  -0.000000  -0.000000
    25  O    0.000037   0.000065  -0.000005   0.351878  -0.045985  -0.047049
    26  H    0.000008  -0.000005  -0.000003  -0.027984  -0.000479  -0.010986
              13         14         15         16         17         18
     1  H   -0.003888  -0.005358   0.001761   0.000186  -0.000927  -0.000039
     2  O   -0.084843  -0.040351   0.036554   0.036784  -0.004687  -0.005735
     3  C    0.154891  -0.159805   0.008565  -0.035654   0.002420  -0.001281
     4  N   -0.028878   0.034770  -0.019122   0.006961   0.000019   0.000284
     5  H    0.002422  -0.000775   0.002260  -0.000539   0.000038  -0.000036
     6  C    0.005685  -0.000549   0.000529  -0.000073   0.000100  -0.000008
     7  H   -0.000029   0.000055   0.000006  -0.000003  -0.000001  -0.000000
     8  H    0.000711  -0.000856   0.000282  -0.000192   0.000016   0.000004
     9  H    0.000019   0.000117  -0.000108   0.000006  -0.000002   0.000001
    10  C   -0.042703   0.006198   0.004524   0.002400  -0.000386   0.000634
    11  H    0.006850   0.000836   0.000058   0.000258  -0.000006   0.000068
    12  H   -0.002239  -0.003193  -0.001589   0.000274   0.000052   0.000035
    13  O    8.089845   0.296108  -0.035239  -0.038716   0.009847   0.010657
    14  C    0.296108   5.527967   0.085368   0.172779   0.030656  -0.005633
    15  C   -0.035239   0.085368   5.349141   0.043207   0.247354  -0.028336
    16  C   -0.038716   0.172779   0.043207   5.196086  -0.010408   0.292766
    17  C    0.009847   0.030656   0.247354  -0.010408   5.016056  -0.042709
    18  C    0.010657  -0.005633  -0.028336   0.292766  -0.042709   5.042433
    19  C    0.001017   0.002663  -0.059355  -0.077726   0.389728   0.373903
    20  F   -0.001221  -0.039139   0.242734   0.005763  -0.030461  -0.000315
    21  F    0.002378  -0.076275   0.005309   0.308336  -0.001116  -0.037187
    22  F   -0.000061   0.009397  -0.055257  -0.001396   0.294618   0.007215
    23  F   -0.000065   0.009643  -0.001069  -0.053880   0.007321   0.292343
    24  F   -0.000001  -0.001140   0.009070   0.008612  -0.046614  -0.045951
    25  O    0.004155   0.003592  -0.000093   0.009352   0.000013   0.001426
    26  H   -0.000585   0.000551   0.000102  -0.000476  -0.000005  -0.000081
              19         20         21         22         23         24
     1  H    0.000036   0.010087   0.000001  -0.000018  -0.000000   0.000000
     2  O    0.000740  -0.000645  -0.001021  -0.000001   0.000000  -0.000000
     3  C    0.000580  -0.000851   0.002635   0.000032   0.000019  -0.000002
     4  N   -0.000144  -0.001879  -0.000083  -0.000001  -0.000000   0.000000
     5  H    0.000007   0.000153  -0.000002  -0.000000   0.000000   0.000000
     6  C   -0.000000  -0.000088   0.000001   0.000000   0.000000  -0.000000
     7  H    0.000000  -0.000011   0.000000   0.000000  -0.000000  -0.000000
     8  H    0.000003   0.000010   0.000001  -0.000000  -0.000000  -0.000000
     9  H   -0.000001   0.000018  -0.000000   0.000000  -0.000000   0.000000
    10  C   -0.000060   0.000053   0.000862   0.000000  -0.000004   0.000000
    11  H    0.000000   0.000001  -0.000066   0.000000  -0.000000  -0.000000
    12  H   -0.000014  -0.000003  -0.000124  -0.000000   0.000000  -0.000000
    13  O    0.001017  -0.001221   0.002378  -0.000061  -0.000065  -0.000001
    14  C    0.002663  -0.039139  -0.076275   0.009397   0.009643  -0.001140
    15  C   -0.059355   0.242734   0.005309  -0.055257  -0.001069   0.009070
    16  C   -0.077726   0.005763   0.308336  -0.001396  -0.053880   0.008612
    17  C    0.389728  -0.030461  -0.001116   0.294618   0.007321  -0.046614
    18  C    0.373903  -0.000315  -0.037187   0.007215   0.292343  -0.045951
    19  C    5.002529   0.006844   0.007508  -0.046156  -0.046572   0.283943
    20  F    0.006844   8.999615  -0.000031   0.000639   0.000000  -0.000027
    21  F    0.007508  -0.000031   8.960425   0.000000   0.000279  -0.000027
    22  F   -0.046156   0.000639   0.000000   8.965824  -0.000028   0.001154
    23  F   -0.046572   0.000000   0.000279  -0.000028   8.967486   0.001098
    24  F    0.283943  -0.000027  -0.000027   0.001154   0.001098   8.964237
    25  O   -0.000056   0.000001  -0.009432   0.000000  -0.000001   0.000000
    26  H    0.000003  -0.000000   0.000507  -0.000000  -0.000000   0.000000
              25         26
     1  H   -0.000183   0.000025
     2  O   -0.002004  -0.000419
     3  C   -0.103191   0.012673
     4  N    0.002583  -0.000514
     5  H   -0.000074  -0.000016
     6  C   -0.000430   0.000017
     7  H    0.000037   0.000008
     8  H    0.000065  -0.000005
     9  H   -0.000005  -0.000003
    10  C    0.351878  -0.027984
    11  H   -0.045985  -0.000479
    12  H   -0.047049  -0.010986
    13  O    0.004155  -0.000585
    14  C    0.003592   0.000551
    15  C   -0.000093   0.000102
    16  C    0.009352  -0.000476
    17  C    0.000013  -0.000005
    18  C    0.001426  -0.000081
    19  C   -0.000056   0.000003
    20  F    0.000001  -0.000000
    21  F   -0.009432   0.000507
    22  F    0.000000  -0.000000
    23  F   -0.000001  -0.000000
    24  F    0.000000   0.000000
    25  O    8.014088   0.294058
    26  H    0.294058   0.400771
 Mulliken charges:
               1
     1  H    0.278861
     2  O   -0.522346
     3  C    0.291151
     4  N   -0.151879
     5  H    0.287841
     6  C   -0.335637
     7  H    0.173296
     8  H    0.166242
     9  H    0.174648
    10  C   -0.142706
    11  H    0.125229
    12  H    0.126124
    13  O   -0.346117
    14  C    0.152374
    15  C    0.163343
    16  C    0.135292
    17  C    0.139086
    18  C    0.145541
    19  C    0.160581
    20  F   -0.191248
    21  F   -0.162879
    22  F   -0.175962
    23  F   -0.176570
    24  F   -0.174352
    25  O   -0.472747
    26  H    0.332836
 Sum of Mulliken charges =  -0.00000
 Mulliken charges with hydrogens summed into heavy atoms:
               1
     2  O   -0.522346
     3  C    0.291151
     4  N    0.414823
     6  C    0.178549
    10  C    0.108646
    13  O   -0.346117
    14  C    0.152374
    15  C    0.163343
    16  C    0.135292
    17  C    0.139086
    18  C    0.145541
    19  C    0.160581
    20  F   -0.191248
    21  F   -0.162879
    22  F   -0.175962
    23  F   -0.176570
    24  F   -0.174352
    25  O   -0.139911
 Electronic spatial extent (au):  <R**2>=           4607.5938
 Charge=              0.0000 electrons
 Dipole moment (field-independent basis, Debye):
    X=              9.2307    Y=             -5.1169    Z=             -3.6394  Tot=             11.1639
 Quadrupole moment (field-independent basis, Debye-Ang):
   XX=            -69.8348   YY=            -95.6759   ZZ=           -102.2943
   XY=            -11.1192   XZ=             -6.0639   YZ=             -5.0875
 Traceless Quadrupole moment (field-independent basis, Debye-Ang):
   XX=             19.4335   YY=             -6.4076   ZZ=            -13.0260
   XY=            -11.1192   XZ=             -6.0639   YZ=             -5.0875
 Octapole moment (field-independent basis, Debye-Ang**2):
  XXX=            159.8178  YYY=             -6.5517  ZZZ=             -9.9234  XYY=             49.1108
  XXY=            -23.6900  XXZ=            -24.0500  XZZ=            -10.9868  YZZ=             -1.7961
  YYZ=             -8.2663  XYZ=            -12.7381
 Hexadecapole moment (field-independent basis, Debye-Ang**3):
 XXXX=          -3166.7743 YYYY=          -1333.0327 ZZZZ=           -297.9285 XXXY=            -61.3362
 XXXZ=            -33.1042 YYYX=              6.6857 YYYZ=            -36.5529 ZZZX=            -44.1524
 ZZZY=              4.9088 XXYY=           -697.1409 XXZZ=           -620.1935 YYZZ=           -264.8160
 XXYZ=            -48.9597 YYXZ=            -34.8769 ZZXY=             -1.4756
 N-N= 1.491065887655D+03 E-N=-5.643065452600D+03  KE= 1.122389735977D+03
 No NMR shielding tensors so no spin-rotation constants.
 Leave Link  601 at Wed Aug 28 21:00:08 2024, MaxMem=  8589934592 cpu:               4.4 elap:               0.2
 (Enter /share/apps/g16.b01_avx2/g16/l701.exe)
 ... and contract with generalized density number  0.
 Compute integral first derivatives.
 R6Disp: Adding Grimme-D3 dispersion energy 1st derivatives to the gradient.
   1 Symmetry operations used in ECPInt.
 ECPInt:  NShTT=   26565 NPrTT=   83856 LenC2=   23345 LenP2D=   52667.
 LDataN:  DoStor=T MaxTD1= 7 Len=  274
 D1PCM: PCM CHGder 1st derivatives, ID1Alg=3 FixD1E=F DoIter=F DoCFld=F I1PDM=0.
 GePol: Maximum number of non-zero 1st derivatives   =     206
 Leave Link  701 at Wed Aug 28 21:00:09 2024, MaxMem=  8589934592 cpu:              28.6 elap:               1.2
 (Enter /share/apps/g16.b01_avx2/g16/l702.exe)
 L702 exits ... SP integral derivatives will be done elsewhere.
 Leave Link  702 at Wed Aug 28 21:00:09 2024, MaxMem=  8589934592 cpu:               0.3 elap:               0.0
 (Enter /share/apps/g16.b01_avx2/g16/l703.exe)
 Integral derivatives from FoFJK, PRISM(SPDF).
 Compute integral first derivatives, UseDBF=F ICtDFT=           0.
 Calling FoFJK, ICntrl=      2127 FMM=F ISym2X=0 I1Cent= 0 IOpClX= 0 NMat=1 NMatS=1 NMatT=0.
 FoFJK:  IHMeth= 1 ICntrl=    2127 DoSepK=F KAlg= 0 I1Cent=           0 FoldK=F
 IRaf=         0 NMat=       1 IRICut=       1 DoRegI=T DoRafI=F ISym2E= 0 IDoP0=0 IntGTp=1.
 FoFCou: FMM=F IPFlag=           0 FMFlag=      100000 FMFlg1=         800
         NFxFlg=           0 DoJE=F BraDBF=F KetDBF=F FulRan=T
         wScrn=  0.000000 ICntrl=      2127 IOpCl=  0 I1Cent=           0 NGrid=           0
         NMat0=    1 NMatS0=      1 NMatT0=    0 NMatD0=    1 NMtDS0=    0 NMtDT0=    0
 Symmetry not used in FoFCou.
 Leave Link  703 at Wed Aug 28 21:00:46 2024, MaxMem=  8589934592 cpu:             880.9 elap:              36.7
 (Enter /share/apps/g16.b01_avx2/g16/l716.exe)
 Dipole        = 3.63161934D+00-2.01312665D+00-1.43186716D+00
 ***** Axes restored to original set *****
 -------------------------------------------------------------------
 Center     Atomic                   Forces (Hartrees/Bohr)
 Number     Number              X              Y              Z
 -------------------------------------------------------------------
      1        1           0.001184194   -0.000680590   -0.000315364
      2        8          -0.001370621   -0.002188246   -0.002375230
      3        6           0.009627392    0.007831167    0.003496359
      4        7          -0.003020573   -0.002952774   -0.000922782
      5        1          -0.000031578    0.000478495   -0.000492353
      6        6          -0.000228989    0.000128407    0.000166007
      7        1          -0.000231388    0.000141224    0.000176662
      8        1           0.000016285   -0.000147115   -0.000092552
      9        1           0.000110341   -0.000022055   -0.000111034
     10        6           0.004454989   -0.024073766   -0.006334352
     11        1          -0.003422593    0.005221480    0.002154943
     12        1          -0.001586635    0.006019387   -0.000992227
     13        8          -0.003053059    0.000110229    0.001176747
     14        6          -0.000268677   -0.000461673    0.000381538
     15        6          -0.000837184   -0.000005998    0.000370808
     16        6          -0.001571394   -0.003861015   -0.000548793
     17        6          -0.000061848   -0.000181685   -0.000150572
     18        6           0.000333862    0.000790919    0.000250468
     19        6          -0.000170156   -0.000347285   -0.000012212
     20        9          -0.000151875    0.000080530   -0.000057502
     21        9           0.005069548    0.003586270    0.000347650
     22        9           0.000065282    0.000206016    0.000048363
     23        9           0.000046935   -0.000117770   -0.000040650
     24        9           0.000292790    0.000165349    0.000030580
     25        8          -0.001818033    0.007546270    0.004143272
     26        1          -0.003377015    0.002734230   -0.000297771
 -------------------------------------------------------------------
 Cartesian Forces:  Max     0.024073766 RMS     0.003736114
 Leave Link  716 at Wed Aug 28 21:00:46 2024, MaxMem=  8589934592 cpu:               0.3 elap:               0.0
 (Enter /share/apps/g16.b01_avx2/g16/l103.exe)

 GradGradGradGradGradGradGradGradGradGradGradGradGradGradGradGradGradGrad
 Berny optimization.
 FormGI is forming the generalized inverse of G from B-inverse, IUseBI=4.
 Internal  Forces:  Max     0.011551536 RMS     0.002695416
 Search for a local minimum.
 Step number   1 out of a maximum of  139
 All quantities printed in internal units (Hartrees-Bohrs-Radians)
 RMS Force = .26954D-02 SwitMx=.10000D-02 MixMth= 1
 Mixed Optimization -- RFO/linear search
 Second derivative matrix not updated -- first step.
 ITU=  0
     Eigenvalues ---    0.00230   0.00230   0.00573   0.00779   0.01295
     Eigenvalues ---    0.02203   0.02244   0.02255   0.02271   0.02283
     Eigenvalues ---    0.02295   0.02300   0.02303   0.02308   0.02527
     Eigenvalues ---    0.03506   0.04816   0.04998   0.05467   0.05822
     Eigenvalues ---    0.06037   0.06238   0.07895   0.08523   0.10268
     Eigenvalues ---    0.11228   0.12363   0.13560   0.16000   0.16000
     Eigenvalues ---    0.16000   0.16000   0.16829   0.19450   0.20581
     Eigenvalues ---    0.21938   0.22012   0.24989   0.24996   0.24999
     Eigenvalues ---    0.24999   0.24999   0.25000   0.25000   0.25000
     Eigenvalues ---    0.25000   0.25000   0.27762   0.30894   0.34730
     Eigenvalues ---    0.34781   0.34964   0.34993   0.35112   0.35859
     Eigenvalues ---    0.40989   0.43572   0.43846   0.44730   0.44797
     Eigenvalues ---    0.47284   0.47705   0.48368   0.48532   0.55473
     Eigenvalues ---    0.57919   0.58580   0.59782   0.59791   0.59852
     Eigenvalues ---    0.60147   0.87832
 RFO step:  Lambda=-1.02715351D-02 EMin= 2.30000000D-03
 Linear search not attempted -- first point.
 Iteration  1 RMS(Cart)=  0.20402297 RMS(Int)=  0.02732063
 Iteration  2 RMS(Cart)=  0.14748035 RMS(Int)=  0.00390123
 Iteration  3 RMS(Cart)=  0.00797116 RMS(Int)=  0.00035998
 Iteration  4 RMS(Cart)=  0.00001533 RMS(Int)=  0.00035990
 Iteration  5 RMS(Cart)=  0.00000001 RMS(Int)=  0.00035990
 ITry= 1 IFail=0 DXMaxC= 1.44D+00 DCOld= 1.00D+10 DXMaxT= 3.00D-01 DXLimC= 3.00D+00 Rises=F
 Variable       Old X    -DE/DX   Delta X   Delta X   Delta X     New X
                                 (Linear)    (Quad)   (Total)
    R1        1.92290   0.00029   0.00000   0.00063   0.00063   1.92354
    R2        2.33948  -0.00263   0.00000  -0.00296  -0.00296   2.33652
    R3        3.11983  -0.00133   0.00000  -0.00614  -0.00614   3.11369
    R4        2.86215   0.00573   0.00000   0.01794   0.01794   2.88009
    R5        2.92663  -0.00154   0.00000  -0.00535  -0.00535   2.92128
    R6        1.92212   0.00053   0.00000   0.00116   0.00116   1.92329
    R7        2.77602   0.00036   0.00000   0.00097   0.00097   2.77699
    R8        2.05494   0.00003   0.00000   0.00007   0.00007   2.05501
    R9        2.05686  -0.00005   0.00000  -0.00013  -0.00013   2.05673
   R10        2.05733  -0.00005   0.00000  -0.00014  -0.00014   2.05720
   R11        2.06032   0.00327   0.00000   0.00912   0.00912   2.06944
   R12        2.06116   0.00261   0.00000   0.00729   0.00729   2.06845
   R13        2.70231  -0.01155   0.00000  -0.02749  -0.02749   2.67482
   R14        2.52626   0.00278   0.00000   0.00471   0.00471   2.53097
   R15        2.63036   0.00031   0.00000   0.00079   0.00079   2.63115
   R16        2.63185   0.00312   0.00000   0.00685   0.00685   2.63871
   R17        2.61362  -0.00031   0.00000  -0.00080  -0.00081   2.61281
[...]
 007616,-0.00005106,-0.00009166,-0.00034043,-0.00049430,0.00017002,0.00
 010793,0.00007387,-0.00003331,0.00002019,0.00001854,0.00408796,0.00186
 048,0.00103802,-0.00560394,0.01764069,-0.00717542,-0.04178371,0.000812
 26,-0.01897707,0.01092779,-0.03492078,0.00843481,-0.19972435,0.1467168
 9,-0.07677724,-0.11285533,-0.09822824,-0.01568646,0.63529100,0.0000063
 0,0.00005201,-0.00001261,-0.00054275,-0.00029738,-0.00113761,-0.001419
 29,-0.00049979,0.00240852,0.00005942,-0.00003314,-0.00001113,0.0000131
 5,-0.00005380,0.00000142,-0.00007705,-0.00003985,-0.00003501,0.0000192
 0,0.00000237,-0.00000440,0.00000018,0.00007241,0.00010104,0.00006000,-
 0.00001968,-0.00001253,-0.00005909,-0.00003229,-0.00022607,0.00007171,
 0.00003123,0.00001415,-0.00000416,0.00000376,-0.00001631,0.00222292,0.
 00192592,0.00004702,0.01808942,-0.07058930,0.01327006,0.05691596,0.073
 10637,0.01966023,-0.09050270,0.00290318,-0.04207699,0.05097340,-0.2144
 1043,0.03744546,-0.00242317,-0.32812390,0.02152450,0.02029844,0.731572
 77,-0.00008575,0.00003471,-0.00002289,0.00023902,0.00016785,-0.0007121
 7,-0.00069082,-0.00059790,0.00172683,0.00014502,-0.00008860,-0.0000344
 8,0.00001391,-0.00003178,-0.00002322,-0.00001418,0.00002529,0.00006376
 ,0.00001624,-0.00000061,-0.00000524,-0.00003636,-0.00000042,0.00004801
 ,0.00000684,-0.00002446,-0.00002676,-0.00003541,-0.00009765,-0.0003281
 2,0.00009152,0.00004823,0.00005030,-0.00001235,0.00000667,0.00001270,0
 .00334194,0.00055539,-0.00263658,-0.00810677,0.01459898,0.00308871,-0.
 02411144,-0.00593884,-0.01054870,0.01255054,-0.01617830,0.00730884,-0.
 06798622,0.08068558,-0.09867377,-0.02367613,-0.02170930,-0.06917930,0.
 23048184,-0.04308754,0.23575504,0.00078044,-0.00119994,0.00107358,0.00
 066490,0.00029500,-0.00042251,-0.00135921,-0.00026098,0.00110026,-0.00
 161328,0.00018058,-0.00051332,-0.00035756,-0.00019103,0.00061027,0.000
 24816,-0.00060116,-0.00022891,-0.00031219,0.00004033,0.00009834,-0.000
 25562,0.00016567,-0.00054536,-0.00004576,0.00013990,0.00005114,-0.0000
 0339,-0.00008159,-0.00042094,0.00016558,0.00009832,0.00004113,-0.00002
 680,0.00001903,0.00004561,0.00541129,-0.00030454,0.00420628,-0.0008719
 6,0.00471446,-0.00430741,-0.18833046,0.12346599,-0.07951289,-0.0033127
 1,-0.00442604,-0.00321895,-0.03570734,0.04492876,-0.02389258,0.0036971
 9,-0.00054961,0.00299359,0.00267033,-0.00775535,-0.00010006,0.22279304
 ,-0.00145930,-0.00013506,-0.00022368,-0.00102994,-0.00034904,0.0009367
 7,0.00221083,0.00119561,-0.00189496,-0.00007580,0.00024532,0.00013607,
 0.00008043,0.00018087,-0.00010376,-0.00025501,0.00021677,-0.00006958,0
 .00017739,-0.00000574,-0.00005337,0.00002248,-0.00015623,0.00036225,0.
 00003617,-0.00003665,0.00003036,0.00019496,0.00013389,0.00049841,-0.00
 016454,-0.00009987,-0.00005483,0.00004351,-0.00000726,-0.00002182,-0.0
 0111340,0.00298068,0.00030174,0.04340517,-0.03942916,0.02340829,0.1234
 2473,-0.20308074,0.07002611,-0.00680593,0.00114118,-0.00312187,0.00357
 780,-0.00432522,0.00271575,-0.00139922,0.00386801,-0.00113019,-0.00442
 427,-0.00443366,-0.00122504,-0.16411371,0.24084211,0.00069410,-0.00006
 122,0.00005733,-0.00007842,0.00002051,-0.00055062,0.00004138,-0.000428
 86,0.00173832,-0.00002197,-0.00007146,-0.00009916,-0.00005283,-0.00005
 716,0.00007065,-0.00001238,0.00012174,-0.00022956,0.00004686,-0.000007
 41,0.00008297,0.00027395,-0.00002599,-0.00002754,-0.00004899,0.0000097
 4,0.00001077,0.00000594,-0.00000883,-0.00043095,0.00010586,0.00005919,
 0.00006531,-0.00000703,0.00000552,0.00001699,0.00549548,-0.00085931,-0
 .00356731,-0.00873877,0.00519037,0.00334431,-0.07958530,0.07114122,-0.
 07868817,-0.00329069,-0.00159914,0.00357311,-0.02032486,0.02150094,-0.
 00231147,0.00324499,-0.00077253,-0.00134136,-0.00044120,-0.00283852,0.
 00465383,0.10378272,-0.09347584,0.07766504,-0.00001366,0.00000862,0.00
 000412,-0.00205596,0.00214341,-0.00102073,0.00005403,-0.00119974,0.002
 01791,-0.00009777,0.00014217,-0.00003480,-0.00000071,0.00003169,0.0000
 0540,-0.00001478,-0.00002402,-0.00006412,0.00001056,-0.00000371,0.0000
 0011,-0.00000325,-0.00001794,0.00000659,-0.00000024,0.00001294,0.00001
 318,0.00033746,-0.00006831,-0.00001486,0.00001166,0.00001481,-0.000001
 27,-0.00007335,-0.00001629,-0.00005291,0.00368200,0.00240665,0.0041070
 2,0.00977245,0.02428968,-0.00044668,-0.00588987,-0.00168639,-0.0050422
 5,-0.08132939,-0.06228577,-0.01553986,0.00231925,0.00076823,0.00220126
 ,-0.00522343,-0.04794415,-0.00275678,-0.00348122,0.00643793,-0.0043245
 4,0.00093335,0.00135358,0.00003959,0.07982341,-0.00029312,0.00014212,-
 0.00009155,-0.00097438,0.00129125,-0.00315684,-0.00148081,-0.00289277,
 0.00617093,0.00030089,-0.00011657,-0.00002536,0.00004645,-0.00007500,-
 0.00006520,-0.00012993,0.00002659,0.00006749,0.00005998,-0.00000367,-0
 .00002731,-0.00000228,0.00005682,0.00017493,0.00006236,-0.00006384,-0.
 00004518,0.00013625,-0.00048895,-0.00093448,0.00024669,0.00015707,0.00
 011388,-0.00007944,0.00000356,-0.00003489,0.00398182,0.00815397,-0.001
 22421,-0.01388044,-0.05493345,-0.00294252,0.00057051,0.00463884,0.0001
 0222,-0.06084696,-0.34887792,-0.00536935,0.00173957,0.00541645,0.00013
 819,-0.00713583,-0.04442382,0.00052795,0.00332960,0.00430854,0.0015275
 6,0.00218901,-0.00506703,0.00152436,0.08069989,0.43434391,0.00002711,-
 0.00001849,0.00000424,0.00015545,-0.00105123,-0.00013274,0.00085295,-0
 .00007026,0.00055732,0.00000307,-0.00002362,0.00001498,-0.00000451,-0.
 00000603,0.00000334,0.00001520,-0.00000609,0.00000953,-0.00000613,0.00
 000203,0.00000182,-0.00000752,0.00000037,-0.00001260,-0.00000322,0.000
 00036,-0.00000483,-0.00009471,0.00009082,-0.00015658,0.00001465,0.0000
 0322,0.00001857,0.00002639,0.00000233,0.00001273,0.00481557,0.00014637
 ,-0.00325911,0.00158284,0.01644876,0.00670417,-0.00535812,-0.00098008,
 0.00262887,-0.01557758,-0.00514608,-0.04398573,0.00254800,-0.00030521,
 -0.00164969,-0.00610968,-0.01849977,0.00715065,-0.00413121,0.00335450,
 0.00246238,0.00003794,0.00108287,0.00052976,0.01795949,0.00735253,0.03
 142590,0.00008160,-0.00005547,0.00003547,-0.00033210,-0.00023483,0.000
 90695,0.00155247,0.00046648,-0.00213715,-0.00014241,0.00010168,0.00001
 767,-0.00001454,0.00004063,0.00002686,0.00003145,-0.00000357,-0.000053
 42,-0.00000973,0.00000112,0.00000931,0.00001471,-0.00001891,-0.0000633
 7,-0.00001937,0.00003311,0.00002462,-0.00005529,0.00025046,0.00034289,
 -0.00010996,-0.00006717,-0.00005049,0.00000971,-0.00000849,-0.00000379
 ,-0.00240519,-0.00309972,0.00041957,-0.00365400,0.00574235,-0.00401588
 ,-0.00498369,-0.04709022,-0.00195153,0.00216138,0.00096046,0.00217427,
 -0.08118536,-0.06421400,-0.01551854,-0.00622229,-0.00174390,-0.0047492
 5,0.00900431,0.02342885,-0.00174702,0.00333667,-0.00006907,0.00396645,
 -0.00026828,-0.00231475,-0.00037336,0.07685939,0.00027620,-0.00014942,
 0.00009540,-0.00116318,-0.00056678,0.00166824,0.00359729,0.00146389,-0
 .00365430,-0.00041778,0.00026226,0.00003577,-0.00004805,0.00010498,0.0
 0007359,0.00011034,-0.00002797,-0.00013369,-0.00004868,0.00000828,0.00
 002649,0.00002768,-0.00008644,-0.00018440,-0.00007000,0.00009021,0.000
 06261,0.00006104,0.00043860,0.00067444,-0.00022070,-0.00013515,-0.0001
 0297,0.00001965,-0.00002432,-0.00001732,-0.00527341,-0.00343392,0.0007
 4186,0.00313086,0.00245440,0.00156854,-0.00579105,-0.04115224,0.001711
 68,0.00093614,0.00578085,-0.00051131,-0.06421564,-0.35149137,-0.001866
 67,0.00043320,0.00539256,0.00002123,-0.01885636,-0.05579494,-0.0030629
 2,-0.00237933,0.01008993,-0.00250524,-0.00224304,-0.00986702,-0.000171
 15,0.08509070,0.43429605,0.00001275,-0.00001988,0.00000034,0.00012939,
 -0.00001742,0.00023208,0.00023687,0.00010462,-0.00072353,-0.00002503,0
 .00001592,0.00000421,-0.00000319,0.00001441,0.00000238,0.00002146,0.00
 000506,0.00000244,-0.00000965,0.00000075,0.00000228,-0.00001334,-0.000
 01812,-0.00001804,-0.00001263,0.00000750,0.00000347,-0.00006964,0.0000
 3758,0.00011129,-0.00003533,-0.00002320,-0.00002120,0.00000820,-0.0000
 0006,0.00000609,-0.00082106,-0.00114454,0.00075398,-0.00392822,0.00292
 284,0.00251873,-0.00528830,-0.01726551,0.00712767,0.00200484,-0.000387
 80,-0.00182612,-0.01551913,-0.00190649,-0.04206727,-0.00487947,-0.0009
 3321,0.00232003,0.00202955,0.01635919,0.00762979,0.00414234,-0.0013334
 0,-0.00349394,-0.00028638,-0.00016240,0.00077818,0.01782623,0.00311123
 ,0.02957689,0.00025499,-0.00012979,0.00008305,-0.00088562,-0.00048132,
 0.00149204,0.00317896,0.00151283,-0.00315842,-0.00037148,0.00019742,0.
 00004435,-0.00004289,0.00008881,0.00006823,0.00007680,-0.00002712,-0.0
 0012222,-0.00004686,0.00000316,0.00002366,0.00002064,-0.00005208,-0.00
 014635,-0.00004320,0.00007142,0.00005438,0.00011488,0.00027374,0.00050
 576,-0.00016773,-0.00011090,-0.00006815,0.00003203,-0.00001710,0.00000
 638,-0.00561424,0.00009242,-0.00036933,0.00215383,-0.00700478,-0.00092
 079,0.00309360,-0.00095538,0.00291466,-0.03368717,0.04402086,-0.022846
 50,-0.00327265,-0.00464599,-0.00302161,-0.19198816,0.12665245,-0.08196
 135,-0.00444037,0.00403415,-0.00594438,-0.00418124,0.00462083,-0.00275
 274,0.00320219,-0.00245096,0.00427028,0.00098122,0.00234123,-0.0000674
 9,0.22403673,-0.00024998,0.00010703,-0.00007926,0.00067278,0.00036101,
 -0.00092424,-0.00203894,-0.00098434,0.00185571,0.00027767,-0.00013736,
 -0.00001087,0.00003925,-0.00006232,-0.00005727,-0.00009134,0.00003412,
 0.00007807,0.00004829,-0.00000335,-0.00002072,-0.00001884,0.00004123,0
 .00014620,0.00004450,-0.00005642,-0.00003636,-0.00007015,-0.00023888,-
 0.00034291,0.00011358,0.00007110,0.00005278,-0.00001223,0.00001401,0.0
 0000772,0.00268320,0.00165167,-0.00026396,-0.00407948,-0.00455356,-0.0
 0102313,-0.00096809,0.00390378,-0.00114163,0.00223923,-0.00335308,0.00
 214558,-0.00686700,0.00138914,-0.00296665,0.12660126,-0.20399531,0.071
 74079,0.04634646,-0.03824217,0.02490988,0.00449871,-0.00461358,0.00253
 328,0.00018079,0.01029797,-0.00119660,0.00127187,-0.00521470,0.0011154
 4,-0.16834443,0.23847760,0.00013625,-0.00006689,0.00004526,-0.00059466
 ,-0.00015845,0.00072402,0.00143760,0.00061631,-0.00154196,-0.00018774,
 0.00010731,0.00001225,-0.00002425,0.00004575,0.00003725,0.00003823,-0.
 00001250,-0.00006109,-0.00002166,0.00000127,0.00001308,0.00000374,-0.0
 0002240,-0.00007340,-0.00002398,0.00003622,0.00002879,0.00009663,0.000
 11557,0.00027351,-0.00009013,-0.00005335,-0.00003328,0.00001289,-0.000
 00685,-0.00000485,-0.00283650,0.00001730,0.00043395,-0.00086461,-0.002
 44371,0.00429556,0.00279287,-0.00104241,-0.00149733,-0.01913208,0.0209
 6191,-0.00239892,-0.00283909,-0.00189675,0.00333637,-0.08193294,0.0715
 4959,-0.07877693,-0.00956706,0.00587505,0.00323329,-0.00271295,0.00257
 520,-0.00048825,0.00399018,-0.00223087,-0.00347449,0.00003606,0.001568
 69,0.00052841,0.10612377,-0.09475131,0.07811911,0.00028795,-0.00016639
 ,0.00010138,-0.00114208,-0.00092473,0.00204023,0.00411981,0.00268380,-
 0.00387477,-0.00047249,0.00028945,0.00004500,-0.00005048,0.00012209,0.
 00008329,0.00009283,-0.00002415,-0.00015972,-0.00004543,0.00000291,0.0
 0003106,-0.00000046,-0.00008308,-0.00017010,-0.00006422,0.00009623,0.0
 0007321,0.00015306,0.00042115,0.00070183,-0.00023877,-0.00014086,-0.00
 010504,0.00004157,-0.00002527,-0.00001491,-0.00806492,-0.00418536,-0.0
 0140861,0.00213428,0.00055465,0.00230625,0.00549054,0.00212561,0.00048
 449,0.00329705,0.00390084,-0.00126224,-0.04638674,-0.02279400,-0.02286
 986,-0.03074585,-0.00807118,-0.01712863,-0.29302156,-0.07991777,-0.110
 07124,-0.00440316,0.00191019,-0.00238898,-0.00160401,-0.00381265,-0.00
 067524,0.00539903,0.00484226,0.00454838,0.00773575,-0.00236732,0.00624
 224,0.35768264,0.00004472,-0.00004634,0.00002292,-0.00036656,-0.000252
 81,0.00073132,0.00146602,0.00088996,-0.00142790,-0.00014166,0.00009862
 ,0.00002215,-0.00001175,0.00004489,0.00001898,0.00002333,0.00000426,-0
 .00004893,-0.00000932,0.00000007,0.00000731,0.00000074,-0.00003419,-0.
 00004526,-0.00002107,0.00002944,0.00002430,0.00006780,0.00012960,0.000
 25223,-0.00008458,-0.00004883,-0.00003629,0.00001276,-0.00000899,-0.00
 000610,-0.00301767,-0.00126230,-0.00032753,0.00027846,0.00299730,-0.00
 027835,-0.00083416,-0.00791300,0.00079092,0.00690320,-0.00439438,0.003
 81106,0.01893929,0.00955029,0.00859504,-0.04981194,-0.01131089,-0.0209
 5236,-0.07989379,-0.10157552,-0.03072329,0.00102520,0.00115562,0.00040
 561,-0.00297346,-0.00257630,-0.00117237,0.00169004,0.00798132,-0.00045
 680,0.00069522,0.00484070,-0.00056212,0.10609236,0.10188948,0.00012983
 ,-0.00006862,0.00003889,-0.00030293,-0.00033829,0.00098872,0.00160124,
 0.00116261,-0.00206371,-0.00020287,0.00011773,0.00002074,-0.00002389,0
 .00005095,0.00003820,0.00002984,-0.00001097,-0.00007516,-0.00001938,0.
 00000140,0.00001279,0.00000672,-0.00002914,-0.00006625,-0.00002167,0.0
 0003795,0.00003241,0.00006130,0.00016447,0.00035501,-0.00011003,-0.000
 06278,-0.00005385,0.00001662,-0.00000890,-0.00000656,-0.00409232,-0.00
 175063,0.00054372,0.00246969,-0.00025037,-0.00158086,0.00080590,0.0021
 7273,0.00483942,-0.00124312,0.00246537,0.00358281,-0.02694705,-0.01050
 081,-0.00268958,-0.01363003,-0.00207394,0.00250731,-0.11001950,-0.0306
 9007,-0.08393017,-0.00238405,0.00079691,-0.00068218,-0.00065054,-0.001
 53582,0.00027687,0.00494547,0.00104465,-0.00344000,0.00595699,-0.00188
 784,-0.00262668,0.14370250,0.04144134,0.08408447,-0.00001767,0.0002365
 4,0.00006579,-0.00176703,0.00146377,-0.00107472,0.01221084,-0.01816397
 ,-0.00336812,0.00129164,0.00008912,0.00009110,0.00010531,-0.00059847,-
 0.00006233,-0.00000979,-0.00001129,-0.00015888,-0.00005011,-0.00004743
 ,0.00000263,0.00004094,0.00006004,0.00001429,-0.00000128,-0.00002470,0
 .00004774,-0.06618687,0.02108031,0.01695874,0.00120972,0.03198572,0.00
 703487,0.00167551,0.00473084,0.00168171,-0.00060007,-0.00014130,0.0000
 9727,0.00080130,0.00173808,0.00048476,0.00002955,0.00019098,-0.0000405
 9,-0.00002295,-0.00009854,-0.00006660,0.00002383,0.00024347,0.00001524
 ,0.00015897,-0.00012588,0.00002473,0.00017727,0.00009188,0.00007850,0.
 00010400,-0.00018878,0.00006227,-0.00018206,-0.00002511,0.00003086,-0.
 00005162,-0.00020236,-0.00000372,-0.00018164,0.00011880,-0.00010548,-0
 .00025654,-0.00009820,-0.00010440,0.05797158,0.00011982,-0.00019237,-0
 .00032443,-0.00548551,0.00392440,-0.00350928,0.00778463,-0.03638478,-0
 .01134790,-0.00013641,-0.00218240,-0.00113684,-0.00019715,0.00012572,-
 0.00009603,0.00051022,-0.00078617,0.00125506,-0.00000028,0.00005787,-0
 .00012415,-0.00007747,0.00009772,-0.00005319,-0.00003706,-0.00038146,-
 0.00070243,0.04295286,-0.22017526,-0.05487893,0.00787304,-0.01847897,-
 0.00741928,0.00531506,-0.03105929,-0.00687640,-0.00670511,-0.00117823,
 -0.00062465,0.00020312,0.00176210,0.00165943,-0.00030373,0.00060326,-0
 .00040392,-0.00019237,-0.00125012,-0.00030389,0.00020099,0.00051231,-0
 .00002011,0.00041005,-0.00023906,0.00013736,0.00046673,0.00020085,0.00
 025303,0.00015192,-0.00039118,0.00023287,-0.00010698,0.00058702,0.0001
 7277,-0.00020233,-0.00053736,-0.00003317,-0.00047846,0.00033350,-0.000
 27398,-0.00066228,-0.00023627,-0.00030426,-0.03892488,0.48654246,0.000
 19634,-0.00042730,-0.00023044,-0.00241106,0.00208904,0.00100745,0.0054
 4726,-0.02357117,-0.00753454,-0.00006343,-0.00078647,0.00126723,-0.000
 01041,-0.00015360,-0.00008533,-0.00003745,0.00013212,0.00021089,-0.000
 01954,0.00002242,-0.00003020,0.00001759,0.00003642,-0.00001888,0.00003
 474,-0.00005001,-0.00006054,0.01398761,-0.01455362,-0.10424239,0.00200
 372,-0.02446447,-0.00099087,-0.00440326,0.02792888,0.01382788,-0.00201
 602,0.00013877,0.00054509,-0.00045103,0.00047855,0.00040560,-0.0000305
 3,0.00025406,-0.00013122,0.00010536,-0.00027038,-0.00008520,0.00005118
 ,0.00016970,-0.00001777,0.00011085,-0.00010404,0.00004465,0.00014196,0
 .00007308,0.00007224,0.00007171,-0.00014258,0.00008845,-0.00011367,0.0
 0011055,0.00009589,-0.00005600,-0.00016550,-0.00000463,-0.00013533,0.0
 0009813,-0.00008825,-0.00019396,-0.00007269,-0.00008844,-0.04383058,-0
 .15997575,0.47487931,0.00000294,-0.00002545,-0.00000021,0.00033503,0.0
 0064719,0.00014058,-0.00001068,-0.00238202,0.00212318,-0.00003991,0.00
 004514,0.00003597,0.00000378,0.00002806,-0.00000101,0.00000699,0.00001
 423,-0.00003318,0.00000440,-0.00000019,0.00000652,-0.00001055,-0.00001
 714,-0.00000846,-0.00001045,0.00001319,0.00001204,-0.00199751,0.007508
 12,-0.00881183,0.00074191,0.00015685,-0.00150231,0.00010286,0.00276100
 ,0.00044612,0.00018106,0.00009708,-0.00021435,-0.00020591,-0.00004430,
 -0.00010507,0.00005319,-0.00006725,0.00002861,-0.00004382,-0.00005982,
 0.00001394,-0.00001909,-0.00005094,0.00000737,-0.00004763,0.00004659,-
 0.00002298,-0.00004313,-0.00002160,-0.00002271,-0.00002429,0.00004090,
 -0.00001542,0.00009162,0.00006364,0.00000149,0.00002190,0.00006299,0.0
 0000255,0.00004163,-0.00002858,0.00002265,0.00006218,0.00002501,0.0000
 2569,-0.00647281,-0.01247844,0.03160397,0.00727629,-0.00002783,0.00007
 864,0.00005423,0.00095269,0.00079500,-0.00006614,-0.00246646,-0.002409
 09,0.00233494,-0.00006601,0.00021303,-0.00035797,0.00000466,0.00003857
 ,0.00002274,0.00004175,-0.00008618,-0.00006515,0.00000870,-0.00000315,
 0.00000412,-0.00001688,-0.00002788,-0.00000947,-0.00002327,0.00002382,
 -0.00000057,-0.00107937,-0.03075093,0.03496896,0.00058928,0.00263272,0
 .00003188,0.00099495,-0.00496598,-0.00366246,0.00105431,0.00048831,-0.
 00035502,-0.00040676,-0.00011782,-0.00026565,0.00012734,-0.00013637,0.
 00006800,-0.00004272,0.00007055,0.00002594,-0.00003658,-0.00009728,0.0
 0000385,-0.00010062,0.00006796,-0.00004206,-0.00009609,-0.00003353,-0.
 00004653,-0.00004958,0.00008046,-0.00003385,0.00007943,-0.00003777,-0.
 00000995,0.00004468,0.00011832,0.00000743,0.00009376,-0.00006778,0.000
 05144,0.00013349,0.00004826,0.00005631,-0.00337862,-0.18127430,0.19320
 587,0.00366576,0.21535245,-0.00000717,0.00000789,-0.00001370,0.0000721
 8,0.00109047,-0.00084811,0.00143957,-0.00161895,0.00293148,0.00000848,
 -0.00027445,-0.00019437,-0.00002259,0.00004589,-0.00000491,0.00004631,
 -0.00005324,0.00010743,0.00000539,0.00000401,-0.00001082,-0.00001405,-
 0.00000342,-0.00000867,-0.00000819,-0.00003440,-0.00006119,0.00037936,
 -0.01432782,0.00752900,0.00029600,-0.00137952,0.00047834,-0.00003306,-
 0.00218049,0.00127550,-0.00049048,-0.00011829,-0.00033364,0.00001286,0
 .00010439,0.00009168,-0.00003540,0.00001617,-0.00002093,-0.00003329,-0
 .00007736,-0.00002397,0.00001764,0.00002424,0.00000350,0.00001887,-0.0
 0000947,0.00000027,0.00002368,0.00001456,0.00001567,0.00000500,-0.0000
 1982,0.00001367,0.00000456,0.00003539,0.00000057,-0.00001202,-0.000028
 93,-0.00000353,-0.00002888,0.00001918,-0.00001541,-0.00003656,-0.00001
 319,-0.00001792,0.02212493,0.24469806,-0.37883600,-0.02373316,-0.22592
 089,0.36794606\\0.00000080,0.00000541,0.00000239,-0.00000220,-0.000002
 03,-0.00000305,0.00000011,0.00000308,0.00000064,0.00000188,-0.00000742
 ,-0.00000237,0.00000011,0.00000893,-0.00000079,0.00000141,0.00000126,0
 .00000468,0.00000110,0.00000027,-0.00000001,0.00000140,-0.00000064,0.0
 0000056,0.00000127,-0.00000025,0.00000143,-0.00000562,0.00001204,0.000
 00161,0.00000097,0.00000109,-0.00000157,0.00000001,0.00000197,-0.00000
 294,-0.00000403,0.00000058,0.00000236,0.00000014,0.00000305,-0.0000009
 1,-0.00000079,-0.00000276,-0.00000043,0.00000102,-0.00000266,0.0000002
 7,0.00000539,-0.00000253,0.00000444,-0.00000052,-0.00000722,0.00000017
 ,-0.00000166,0.00000157,-0.00000105,0.00000289,0.00000129,0.00000055,-
 0.00000217,-0.00000114,-0.00000205,0.00000123,-0.00000221,0.00000235,-
 0.00000306,-0.00000171,-0.00000135,0.00000086,-0.00000446,0.00000207,0
 .00000206,-0.00000743,-0.00000532,-0.00000258,0.00000193,-0.00000167\\
 \@


 EVERYBODY NEEDS BEAUTY AS WELL AS BREAD, PLACES TO PLAY IN AND PRAY IN,
 WHERE NATURE MAY HEAL AND CHEER AND GIVE STRENGTH TO BODY AND SOUL ALIKE.

                                    -- JOHN MUIR
 Job cpu time:       0 days  7 hours 45 minutes 33.1 seconds.
 Elapsed time:       0 days  0 hours 19 minutes 25.4 seconds.
 File lengths (MBytes):  RWF=    999 Int=      0 D2E=      0 Chk=     39 Scr=      1
 Normal termination of Gaussian 16 at Wed Aug 28 23:18:02 2024.
