 Entering Gaussian System, Link 0=g16
 Input=input.com
 Output=input.log
 Initial command:
 /share/apps/g16.b01_avx2/g16/l1.exe "/scratch/Gau-1904073.inp" -scrdir="/scratch/"
 Entering Link 1 = /share/apps/g16.b01_avx2/g16/l1.exe PID=   1904075.
  
 Copyright (c) 1988-2017, Gaussian, Inc.  All Rights Reserved.
  
 This is part of the Gaussian(R) 16 program.  It is based on
 the Gaussian(R) 09 system (copyright 2009, Gaussian, Inc.),
 the Gaussian(R) 03 system (copyright 2003, Gaussian, Inc.),
 the Gaussian(R) 98 system (copyright 1998, Gaussian, Inc.),
 the Gaussian(R) 94 system (copyright 1995, Gaussian, Inc.),
 the Gaussian 92(TM) system (copyright 1992, Gaussian, Inc.),
 the Gaussian 90(TM) system (copyright 1990, Gaussian, Inc.),
 the Gaussian 88(TM) system (copyright 1988, Gaussian, Inc.),
 the Gaussian 86(TM) system (copyright 1986, Carnegie Mellon
 University), and the Gaussian 82(TM) system (copyright 1983,
 Carnegie Mellon University). Gaussian is a federally registered
 trademark of Gaussian, Inc.
  
 This software contains proprietary and confidential information,
 including trade secrets, belonging to Gaussian, Inc.
  
 This software is provided under written license and may be
 used, copied, transmitted, or stored only in accord with that
 written license.
  
 The following legend is applicable only to US Government
 contracts under FAR:
  
                    RESTRICTED RIGHTS LEGEND
  
 Use, reproduction and disclosure by the US Government is
 subject to restrictions as set forth in subparagraphs (a)
 and (c) of the Commercial Computer Software - Restricted
 Rights clause in FAR 52.227-19.
  
 Gaussian, Inc.
 340 Quinnipiac St., Bldg. 40, Wallingford CT 06492
  
  
 ---------------------------------------------------------------
 Warning -- This program may not be used in any manner that
 competes with the business of Gaussian, Inc. or will provide
 assistance to any competitor of Gaussian, Inc.  The licensee
 of this program is prohibited from giving any competitor of
 Gaussian, Inc. access to this program.  By using this program,
 the user acknowledges that Gaussian, Inc. is engaged in the
 business of creating and licensing software in the field of
 computational chemistry and represents and warrants to the
 licensee that it is not a competitor of Gaussian, Inc. and that
 it will not use this program in any manner prohibited above.
 ---------------------------------------------------------------
  

 Cite this work as:
 Gaussian 16, Revision B.01,
 M. J. Frisch, G. W. Trucks, H. B. Schlegel, G. E. Scuseria, 
 M. A. Robb, J. R. Cheeseman, G. Scalmani, V. Barone, 
 G. A. Petersson, H. Nakatsuji, X. Li, M. Caricato, A. V. Marenich, 
 J. Bloino, B. G. Janesko, R. Gomperts, B. Mennucci, H. P. Hratchian, 
 J. V. Ortiz, A. F. Izmaylov, J. L. Sonnenberg, D. Williams-Young, 
 F. Ding, F. Lipparini, F. Egidi, J. Goings, B. Peng, A. Petrone, 
 T. Henderson, D. Ranasinghe, V. G. Zakrzewski, J. Gao, N. Rega, 
 G. Zheng, W. Liang, M. Hada, M. Ehara, K. Toyota, R. Fukuda, 
 J. Hasegawa, M. Ishida, T. Nakajima, Y. Honda, O. Kitao, H. Nakai, 
 T. Vreven, K. Throssell, J. A. Montgomery, Jr., J. E. Peralta, 
 F. Ogliaro, M. J. Bearpark, J. J. Heyd, E. N. Brothers, K. N. Kudin, 
 V. N. Staroverov, T. A. Keith, R. Kobayashi, J. Normand, 
 K. Raghavachari, A. P. Rendell, J. C. Burant, S. S. Iyengar, 
 J. Tomasi, M. Cossi, J. M. Millam, M. Klene, C. Adamo, R. Cammi, 
 J. W. Ochterski, R. L. Martin, K. Morokuma, O. Farkas, 
 J. B. Foresman, and D. J. Fox, Gaussian, Inc., Wallingford CT, 2016.
 
 ******************************************
 Gaussian 16:  ES64L-G16RevB.01 20-Dec-2017
                29-Aug-2024 
 ******************************************
 %nproc=24
 Will use up to   24 processors via shared memory.
 %mem=64GB
 ----------------------------------------------------------------------
 #P PBE1PBE/def2TZVP opt freq EmpiricalDispersion=GD3 Int=(grid=99590) 
 scrf=(iefpcm, solvent=water)
 ----------------------------------------------------------------------
 1/18=20,19=15,26=6,38=1/1,3;
 2/9=110,12=2,17=6,18=5,40=1/2;
 3/5=44,7=101,11=2,25=1,30=1,70=2201,71=1,72=1,74=-13,75=99590,124=31/1,2,3;
 4//1;
 5/5=2,38=5,53=1/2;
 6/7=2,8=2,9=2,10=2,28=1/1;
 7//1,2,3,16;
 1/18=20,19=15,26=6/3(2);
 2/9=110/2;
 99//99;
 2/9=110/2;
 3/5=44,7=101,11=2,25=1,30=1,70=2205,71=1,72=1,74=-13,75=99590,124=31/1,2,3;
 4/5=5,16=3,69=1/1;
 5/5=2,38=5,53=1/2;
 7//1,2,3,16;
 1/18=20,19=15,26=6/3(-5);
 2/9=110/2;
 6/7=2,8=2,9=2,10=2,19=2,28=1/1;
 99/9=1/99;
 Leave Link    1 at Thu Aug 29 03:45:27 2024, MaxMem=  8589934592 cpu:               0.6 elap:               0.0
 (Enter /share/apps/g16.b01_avx2/g16/l101.exe)
 ----------------------------------
 pfp-ome_ester methylacetamide_prod
 ----------------------------------
 Symbolic Z-matrix:
 Charge =  0 Multiplicity = 1
 C                     0.64172   0.80342   0.17601 
 O                     0.03378  -0.29782   0.14071 
 N                     2.07657   0.84102   0.49332 
 H                     2.49971   1.62069   0.03173 
 C                    -0.11747   2.11169  -0.11322 
 C                     2.71227  -0.40309   0.0362 
 H                     2.58335  -0.5018   -1.02141 
 H                     3.75669  -0.37571   0.26717 
 H                     2.25951  -1.23734   0.5301 
 O                    -0.0595    2.39691  -1.51329 
 H                    -1.13893   2.00517   0.18708 
 H                     0.33312   2.91379   0.43314 
 C                    -0.87114   3.53832  -1.80192 
 H                    -0.79608   3.77537  -2.84262 
 H                    -1.89029   3.32215  -1.55796 
 H                    -0.53438   4.3715   -1.22114 
 
 ITRead=  0  0  0  0  0  0  0  0  0  0  0  0  0  0  0  0
 MicOpt= -1 -1 -1 -1 -1 -1 -1 -1 -1 -1 -1 -1 -1 -1 -1 -1
 NAtoms=     16 NQM=       16 NQMF=       0 NMMI=      0 NMMIF=      0
                NMic=       0 NMicF=      0.
                    Isotopes and Nuclear Properties:
 (Nuclear quadrupole moments (NQMom) in fm**2, nuclear magnetic moments (NMagM)
  in nuclear magnetons)

  Atom         1           2           3           4           5           6           7           8           9          10
 IAtWgt=          12          16          14           1          12          12           1           1           1          16
 AtmWgt=  12.0000000  15.9949146  14.0030740   1.0078250  12.0000000  12.0000000   1.0078250   1.0078250   1.0078250  15.9949146
 NucSpn=           0           0           2           1           0           0           1           1           1           0
 AtZEff=  -0.0000000  -0.0000000  -0.0000000  -0.0000000  -0.0000000  -0.0000000  -0.0000000  -0.0000000  -0.0000000  -0.0000000
 NQMom=    0.0000000   0.0000000   2.0440000   0.0000000   0.0000000   0.0000000   0.0000000   0.0000000   0.0000000   0.0000000
 NMagM=    0.0000000   0.0000000   0.4037610   2.7928460   0.0000000   0.0000000   2.7928460   2.7928460   2.7928460   0.0000000
 AtZNuc=   6.0000000   8.0000000   7.0000000   1.0000000   6.0000000   6.0000000   1.0000000   1.0000000   1.0000000   8.0000000

  Atom        11          12          13          14          15          16
 IAtWgt=           1           1          12           1           1           1
 AtmWgt=   1.0078250   1.0078250  12.0000000   1.0078250   1.0078250   1.0078250
 NucSpn=           1           1           0           1           1           1
 AtZEff=  -0.0000000  -0.0000000  -0.0000000  -0.0000000  -0.0000000  -0.0000000
 NQMom=    0.0000000   0.0000000   0.0000000   0.0000000   0.0000000   0.0000000
 NMagM=    2.7928460   2.7928460   0.0000000   2.7928460   2.7928460   2.7928460
 AtZNuc=   1.0000000   1.0000000   6.0000000   1.0000000   1.0000000   1.0000000
 Leave Link  101 at Thu Aug 29 03:45:27 2024, MaxMem=  8589934592 cpu:               7.1 elap:               0.3
 (Enter /share/apps/g16.b01_avx2/g16/l103.exe)

 GradGradGradGradGradGradGradGradGradGradGradGradGradGradGradGradGradGrad
 Berny optimization.
 Initialization pass.
                           ----------------------------
                           !    Initial Parameters    !
                           ! (Angstroms and Degrees)  !
 --------------------------                            --------------------------
 ! Name  Definition              Value          Derivative Info.                !
 --------------------------------------------------------------------------------
 ! R1    R(1,2)                  1.2584         estimate D2E/DX2                !
 ! R2    R(1,3)                  1.47           estimate D2E/DX2                !
 ! R3    R(1,5)                  1.54           estimate D2E/DX2                !
 ! R4    R(3,4)                  1.0            estimate D2E/DX2                !
 ! R5    R(3,6)                  1.47           estimate D2E/DX2                !
 ! R6    R(5,10)                 1.43           estimate D2E/DX2                !
 ! R7    R(5,11)                 1.07           estimate D2E/DX2                !
 ! R8    R(5,12)                 1.07           estimate D2E/DX2                !
 ! R9    R(6,7)                  1.07           estimate D2E/DX2                !
 ! R10   R(6,8)                  1.07           estimate D2E/DX2                !
 ! R11   R(6,9)                  1.07           estimate D2E/DX2                !
 ! R12   R(10,13)                1.43           estimate D2E/DX2                !
 ! R13   R(13,14)                1.07           estimate D2E/DX2                !
 ! R14   R(13,15)                1.07           estimate D2E/DX2                !
 ! R15   R(13,16)                1.07           estimate D2E/DX2                !
 ! A1    A(2,1,3)              120.0            estimate D2E/DX2                !
 ! A2    A(2,1,5)              120.0            estimate D2E/DX2                !
 ! A3    A(3,1,5)              120.0            estimate D2E/DX2                !
 ! A4    A(1,3,4)              109.4712         estimate D2E/DX2                !
 ! A5    A(1,3,6)              109.4712         estimate D2E/DX2                !
 ! A6    A(4,3,6)              109.4712         estimate D2E/DX2                !
 ! A7    A(1,5,10)             109.4712         estimate D2E/DX2                !
 ! A8    A(1,5,11)             109.4712         estimate D2E/DX2                !
 ! A9    A(1,5,12)             109.4712         estimate D2E/DX2                !
 ! A10   A(10,5,11)            109.4712         estimate D2E/DX2                !
 ! A11   A(10,5,12)            109.4712         estimate D2E/DX2                !
 ! A12   A(11,5,12)            109.4712         estimate D2E/DX2                !
 ! A13   A(3,6,7)              109.4712         estimate D2E/DX2                !
 ! A14   A(3,6,8)              109.4712         estimate D2E/DX2                !
 ! A15   A(3,6,9)              109.4712         estimate D2E/DX2                !
 ! A16   A(7,6,8)              109.4712         estimate D2E/DX2                !
 ! A17   A(7,6,9)              109.4712         estimate D2E/DX2                !
 ! A18   A(8,6,9)              109.4712         estimate D2E/DX2                !
 ! A19   A(5,10,13)            109.5            estimate D2E/DX2                !
 ! A20   A(10,13,14)           109.4712         estimate D2E/DX2                !
 ! A21   A(10,13,15)           109.4712         estimate D2E/DX2                !
 ! A22   A(10,13,16)           109.4712         estimate D2E/DX2                !
 ! A23   A(14,13,15)           109.4713         estimate D2E/DX2                !
 ! A24   A(14,13,16)           109.4712         estimate D2E/DX2                !
 ! A25   A(15,13,16)           109.4712         estimate D2E/DX2                !
 ! D1    D(2,1,3,4)            150.0            estimate D2E/DX2                !
 ! D2    D(2,1,3,6)             30.0            estimate D2E/DX2                !
 ! D3    D(5,1,3,4)            -30.0            estimate D2E/DX2                !
 ! D4    D(5,1,3,6)           -150.0            estimate D2E/DX2                !
 ! D5    D(2,1,5,10)           -90.0            estimate D2E/DX2                !
 ! D6    D(2,1,5,11)            30.0            estimate D2E/DX2                !
 ! D7    D(2,1,5,12)           150.0            estimate D2E/DX2                !
 ! D8    D(3,1,5,10)            90.0            estimate D2E/DX2                !
 ! D9    D(3,1,5,11)          -150.0            estimate D2E/DX2                !
 ! D10   D(3,1,5,12)           -30.0            estimate D2E/DX2                !
 ! D11   D(1,3,6,7)             60.0            estimate D2E/DX2                !
 ! D12   D(1,3,6,8)            180.0            estimate D2E/DX2                !
 ! D13   D(1,3,6,9)            -60.0            estimate D2E/DX2                !
 ! D14   D(4,3,6,7)            -60.0            estimate D2E/DX2                !
 ! D15   D(4,3,6,8)             60.0            estimate D2E/DX2                !
 ! D16   D(4,3,6,9)            180.0            estimate D2E/DX2                !
 ! D17   D(1,5,10,13)          174.4281         estimate D2E/DX2                !
 ! D18   D(11,5,10,13)          54.4281         estimate D2E/DX2                !
 ! D19   D(12,5,10,13)         -65.5719         estimate D2E/DX2                !
 ! D20   D(5,10,13,14)         177.7209         estimate D2E/DX2                !
 ! D21   D(5,10,13,15)         -62.2791         estimate D2E/DX2                !
 ! D22   D(5,10,13,16)          57.7209         estimate D2E/DX2                !
 --------------------------------------------------------------------------------
 Trust Radius=3.00D-01 FncErr=5.00D-06 GrdErr=5.00D-06 EigMax=2.50D+02 EigMin=1.00D-04
 Number of steps in this run=     72 maximum allowed number of steps=    100.
 GradGradGradGradGradGradGradGradGradGradGradGradGradGradGradGradGradGrad

 Leave Link  103 at Thu Aug 29 03:45:27 2024, MaxMem=  8589934592 cpu:               0.2 elap:               0.0
 (Enter /share/apps/g16.b01_avx2/g16/l202.exe)
                          Input orientation:                          
 ---------------------------------------------------------------------
 Center     Atomic      Atomic             Coordinates (Angstroms)
 Number     Number       Type             X           Y           Z
 ---------------------------------------------------------------------
      1          6           0        0.641720    0.803417    0.176008
      2          8           0        0.033777   -0.297823    0.140708
      3          7           0        2.076571    0.841025    0.493323
      4          1           0        2.499714    1.620695    0.031733
      5          6           0       -0.117471    2.111690   -0.113218
      6          6           0        2.712275   -0.403089    0.036199
      7          1           0        2.583346   -0.501795   -1.021409
      8          1           0        3.756690   -0.375714    0.267170
      9          1           0        2.259511   -1.237335    0.530100
     10          8           0       -0.059496    2.396910   -1.513285
     11          1           0       -1.138929    2.005166    0.187076
     12          1           0        0.333117    2.913792    0.433136
     13          6           0       -0.871144    3.538321   -1.801917
     14          1           0       -0.796081    3.775375   -2.842624
     15          1           0       -1.890288    3.322150   -1.557958
     16          1           0       -0.534380    4.371499   -1.221139
 ---------------------------------------------------------------------
                    Distance matrix (angstroms):
                    1          2          3          4          5
     1  C    0.000000
     2  O    1.258400   0.000000
     3  N    1.470000   2.365231   0.000000
     4  H    2.034920   3.126249   1.000000   0.000000
     5  C    1.540000   2.427572   2.606971   2.666785   0.000000
     6  C    2.400500   2.682602   1.470000   2.034920   3.788654
     7  H    2.628174   2.809346   2.086720   2.370879   3.866462
     8  H    3.331921   3.725875   2.086720   2.370879   4.619632
     9  H    2.628174   2.447081   2.086720   2.911082   4.156906
    10  O    2.425826   3.163223   3.318137   3.088551   1.430000
    11  H    2.148263   2.584792   3.433431   3.662195   1.070000
    12  H    2.148263   3.238764   2.709173   2.554871   1.070000
    13  C    3.698735   4.394163   4.607879   4.289784   2.335595
    14  H    4.473471   5.116627   5.290660   4.875125   3.267724
    15  H    3.970103   4.437533   5.108787   4.969325   2.587541
    16  H    4.008296   4.896937   4.713883   4.282796   2.551086
                    6          7          8          9         10
     6  C    0.000000
     7  H    1.070000   0.000000
     8  H    1.070000   1.747303   0.000000
     9  H    1.070000   1.747303   1.747303   0.000000
    10  O    4.233628   3.953359   5.041898   4.770844   0.000000
    11  H    4.544692   4.647647   5.444455   4.709658   2.051796
    12  H    4.101176   4.341137   4.750710   4.577363   2.051796
    13  C    5.635092   5.372637   6.404501   6.168160   1.430000
    14  H    6.168933   5.747307   6.901455   6.770463   2.051796
    15  H    6.132073   5.909640   6.992400   6.509203   2.051796
    16  H    5.909175   5.788705   6.569960   6.506280   2.051796
                   11         12         13         14         15
    11  H    0.000000
    12  H    1.747303   0.000000
    13  C    2.525542   2.614525   0.000000
    14  H    3.525658   3.570436   1.070000   0.000000
    15  H    2.311738   3.012431   1.070000   1.747303   0.000000
    16  H    2.819234   2.369406   1.070000   1.747303   1.747303
                   16
    16  H    0.000000
 Stoichiometry    C4H9NO2
 Framework group  C1[X(C4H9NO2)]
 Deg. of freedom    42
 Full point group                 C1      NOp   1
 Largest Abelian subgroup         C1      NOp   1
 Largest concise Abelian subgroup C1      NOp   1
                         Standard orientation:                         
 ---------------------------------------------------------------------
 Center     Atomic      Atomic             Coordinates (Angstroms)
 Number     Number       Type             X           Y           Z
 ---------------------------------------------------------------------
      1          6           0       -0.601916    0.440491    0.267294
      2          8           0       -1.011901    1.494238   -0.285066
      3          7           0       -1.546567   -0.642301    0.577288
      4          1           0       -1.070802   -1.521016    0.538467
      5          6           0        0.889448    0.285295    0.618502
      6          6           0       -2.640885   -0.633807   -0.404187
      7          1           0       -2.240759   -0.779696   -1.385776
      8          1           0       -3.328488   -1.421962   -0.178545
      9          1           0       -3.149954    0.306418   -0.362649
     10          8           0        1.579494   -0.308823   -0.484113
     11          1           0        1.309193    1.247566    0.825259
     12          1           0        0.989582   -0.340257    1.480800
     13          6           0        2.982938   -0.334544   -0.211016
     14          1           0        3.494700   -0.814945   -1.018614
     15          1           0        3.344156    0.667086   -0.105386
     16          1           0        3.160089   -0.875020    0.695298
 ---------------------------------------------------------------------
 Rotational constants (GHZ):           5.9214787           1.3219572           1.2064708
 Leave Link  202 at Thu Aug 29 03:45:27 2024, MaxMem=  8589934592 cpu:               0.1 elap:               0.0
 (Enter /share/apps/g16.b01_avx2/g16/l301.exe)
 Standard basis: def2TZVP (5D, 7F)
 Ernie: Thresh=  0.10000D-02 Tol=  0.10000D-05 Strict=F.
 There are   306 symmetry adapted cartesian basis functions of A   symmetry.
 There are   271 symmetry adapted basis functions of A   symmetry.
   271 basis functions,   429 primitive gaussians,   306 cartesian basis functions
    28 alpha electrons       28 beta electrons
       nuclear repulsion energy       311.3784226581 Hartrees.
 IExCor= 1009 DFT=T Ex+Corr=PBE1PBE ExCW=0 ScaHFX=  0.250000
 ScaDFX=  0.750000  0.750000  1.000000  1.000000 ScalE2=  1.000000  1.000000
 IRadAn=  99590 IRanWt=     -1 IRanGd=            0 ICorTp=0 IEmpDi=131
 NAtoms=   16 NActive=   16 NUniq=   16 SFac= 1.00D+00 NAtFMM=   60 NAOKFM=F Big=F
 Integral buffers will be    131072 words long.
 Raffenetti 2 integral format.
 Two-electron integral symmetry is turned on.
 R6Disp:  Grimme-D3 Dispersion energy=       -0.0058322879 Hartrees.
 Nuclear repulsion after empirical dispersion term =      311.3725903702 Hartrees.
 ------------------------------------------------------------------------------
 Polarizable Continuum Model (PCM)
 =================================
 Model                : PCM.
 Atomic radii         : UFF (Universal Force Field).
 Polarization charges : Total charges.
 Charge compensation  : None.
 Solution method      : On-the-fly selection.
 Cavity type          : Scaled VdW (van der Waals Surface) (Alpha=1.100).
 Cavity algorithm     : GePol (No added spheres)
                        Default sphere list used, NSphG=   16.
                        Lebedev-Laikov grids with approx.  5.0 points / Ang**2.
                        Smoothing algorithm: York/Karplus (Gamma=1.0000).
                        Polarization charges: spherical gaussians, with
                                              point-specific exponents (IZeta= 3).
                        Self-potential: point-specific (ISelfS= 7).
                        Self-field    : sphere-specific E.n sum rule (ISelfD= 2).
 1st derivatives      : Analytical E(r).r(x)/FMM algorithm (CHGder, D1EAlg=3).
                        Cavity 1st derivative terms included.
 Solvent              : Water, Eps=  78.355300 Eps(inf)=   1.777849
 ------------------------------------------------------------------------------
 Spheres list:
 ISph  on   Nord     Re0    Alpha      Xe            Ye            Ze
    1   C      1    1.9255  1.100     -0.601916      0.440491      0.267294
    2   O      2    1.7500  1.100     -1.011901      1.494238     -0.285066
    3   N      3    1.8300  1.100     -1.546567     -0.642301      0.577288
    4   H      4    1.4430  1.100     -1.070802     -1.521016      0.538467
    5   C      5    1.9255  1.100      0.889448      0.285295      0.618502
    6   C      6    1.9255  1.100     -2.640885     -0.633807     -0.404187
    7   H      7    1.4430  1.100     -2.240759     -0.779696     -1.385776
    8   H      8    1.4430  1.100     -3.328488     -1.421962     -0.178545
    9   H      9    1.4430  1.100     -3.149954      0.306418     -0.362649
   10   O     10    1.7500  1.100      1.579494     -0.308823     -0.484113
   11   H     11    1.4430  1.100      1.309193      1.247566      0.825259
   12   H     12    1.4430  1.100      0.989582     -0.340257      1.480800
   13   C     13    1.9255  1.100      2.982938     -0.334544     -0.211016
   14   H     14    1.4430  1.100      3.494700     -0.814945     -1.018614
   15   H     15    1.4430  1.100      3.344156      0.667086     -0.105386
   16   H     16    1.4430  1.100      3.160089     -0.875020      0.695298
 ------------------------------------------------------------------------------
 GePol: Number of generator spheres                  =      16
 GePol: Total number of spheres                      =      16
 GePol: Number of exposed spheres                    =      16 (100.00%)
 GePol: Number of points                             =    1332
 GePol: Average weight of points                     =       0.13
 GePol: Minimum weight of points                     =   0.54D-10
 GePol: Maximum weight of points                     =    0.20577
 GePol: Number of points with low weight             =      77
 GePol: Fraction of low-weight points (<1% of avg)   =       5.78%
 GePol: Cavity surface area                          =    179.028 Ang**2
 GePol: Cavity volume                                =    166.601 Ang**3
 Leave Link  301 at Thu Aug 29 03:45:27 2024, MaxMem=  8589934592 cpu:               0.7 elap:               0.0
 (Enter /share/apps/g16.b01_avx2/g16/l302.exe)
 NPDir=0 NMtPBC=     1 NCelOv=     1 NCel=       1 NClECP=     1 NCelD=      1
         NCelK=      1 NCelE2=     1 NClLst=     1 CellRange=     0.0.
 One-electron integrals computed using PRISM.
 One-electron integral symmetry used in STVInt
   1 Symmetry operations used in ECPInt.
 ECPInt:  NShTT=    6441 NPrTT=   19096 LenC2=    6230 LenP2D=   14728.
 LDataN:  DoStor=T MaxTD1= 6 Len=  172
 NBasis=   271 RedAO= T EigKep=  3.15D-04  NBF=   271
 NBsUse=   271 1.00D-06 EigRej= -1.00D+00 NBFU=   271
 Precomputing XC quadrature grid using
 IXCGrd= 4 IRadAn=       99590 IRanWt=          -1 IRanGd=           0 AccXCQ= 0.00D+00.
 Generated NRdTot=       0 NPtTot=           0 NUsed=           0 NTot=          32
 NSgBfM=   304   304   304   304   304 MxSgAt=    16 MxSgA2=    16.
 Leave Link  302 at Thu Aug 29 03:45:27 2024, MaxMem=  8589934592 cpu:               4.2 elap:               0.2
 (Enter /share/apps/g16.b01_avx2/g16/l303.exe)
 DipDrv:  MaxL=1.
 Leave Link  303 at Thu Aug 29 03:45:27 2024, MaxMem=  8589934592 cpu:               0.6 elap:               0.0
 (Enter /share/apps/g16.b01_avx2/g16/l401.exe)
 ExpMin= 9.52D-02 ExpMax= 2.70D+04 ExpMxC= 9.22D+02 IAcc=4 IRadAn=    199590 AccDes= 0.00D+00
 Harris functional with IExCor= 1009 and IRadAn=  199590 diagonalized for initial guess.
 HarFok:  IExCor= 1009 AccDes= 0.00D+00 IRadAn=    199590 IDoV= 1 UseB2=F ITyADJ=14
 ICtDFT=  3500011 ScaDFX=  1.000000  1.000000  1.000000  1.000000
 FoFCou: FMM=F IPFlag=           0 FMFlag=      100000 FMFlg1=           0
         NFxFlg=           0 DoJE=T BraDBF=F KetDBF=T FulRan=T
         wScrn=  0.000000 ICntrl=       500 IOpCl=  0 I1Cent=   200000004 NGrid=           0
         NMat0=    1 NMatS0=      1 NMatT0=    0 NMatD0=    1 NMtDS0=    0 NMtDT0=    0
 Petite list used in FoFCou.
 Harris En= -362.856601456984    
 JPrj=0 DoOrth=F DoCkMO=F.
 Leave Link  401 at Thu Aug 29 03:45:28 2024, MaxMem=  8589934592 cpu:              20.0 elap:               0.8
 (Enter /share/apps/g16.b01_avx2/g16/l502.exe)
 Integral symmetry usage will be decided dynamically.
 Closed shell SCF:
 Using DIIS extrapolation, IDIIS=  1040.
 NGot=  8589934592 LenX=  8589737094 LenY=  8589643017
 Requested convergence on RMS density matrix=1.00D-08 within 128 cycles.
 Requested convergence on MAX density matrix=1.00D-06.
 Requested convergence on             energy=1.00D-06.
 No special actions if energy rises.
 Fock matrices will be formed incrementally for  20 cycles.

 Cycle   1  Pass 1  IDiag  1:
 FoFJK:  IHMeth= 1 ICntrl=       0 DoSepK=F KAlg= 0 I1Cent=           0 FoldK=F
 IRaf= 940000000 NMat=       1 IRICut=       1 DoRegI=T DoRafI=F ISym2E= 0 IDoP0=0 IntGTp=1.
 FoFCou: FMM=F IPFlag=           0 FMFlag=      100000 FMFlg1=           0
         NFxFlg=           0 DoJE=F BraDBF=F KetDBF=F FulRan=T
         wScrn=  0.000000 ICntrl=         0 IOpCl=  0 I1Cent=           0 NGrid=           0
         NMat0=    1 NMatS0=      1 NMatT0=    0 NMatD0=    1 NMtDS0=    0 NMtDT0=    0
 Symmetry not used in FoFCou.
 Inv3:  Mode=1 IEnd=     5322672.
 Iteration    1 A*A^-1 deviation from unit magnitude is 2.89D-15 for    638.
 Iteration    1 A*A^-1 deviation from orthogonality  is 2.00D-15 for   1118    577.
 Iteration    1 A^-1*A deviation from unit magnitude is 3.11D-15 for    638.
 Iteration    1 A^-1*A deviation from orthogonality  is 2.86D-14 for   1155    962.
 E= -362.572908456692    
 DIIS: error= 2.29D-02 at cycle   1 NSaved=   1.
 NSaved= 1 IEnMin= 1 EnMin= -362.572908456692     IErMin= 1 ErrMin= 2.29D-02
 ErrMax= 2.29D-02  0.00D+00 EMaxC= 1.00D-01 BMatC= 2.34D-01 BMatP= 2.34D-01
 IDIUse=3 WtCom= 7.71D-01 WtEn= 2.29D-01
 Coeff-Com:  0.100D+01
 Coeff-En:   0.100D+01
 Coeff:      0.100D+01
 Gap=     0.202 Goal=   None    Shift=    0.000
 GapD=    0.202 DampG=1.000 DampE=0.500 DampFc=0.5000 IDamp=-1.
 Damping current iteration by 5.00D-01
 RMSDP=2.97D-03 MaxDP=9.58D-02              OVMax= 1.86D-01

 Cycle   2  Pass 1  IDiag  1:
 RMSU=  1.48D-03    CP:  9.82D-01
 E= -362.636169607857     Delta-E=       -0.063261151165 Rises=F Damp=T
 DIIS: error= 5.31D-03 at cycle   2 NSaved=   2.
 NSaved= 2 IEnMin= 2 EnMin= -362.636169607857     IErMin= 2 ErrMin= 5.31D-03
 ErrMax= 5.31D-03  0.00D+00 EMaxC= 1.00D-01 BMatC= 3.05D-02 BMatP= 2.34D-01
 IDIUse=3 WtCom= 9.47D-01 WtEn= 5.31D-02
 Coeff-Com:  0.157D+00 0.843D+00
 Coeff-En:   0.263D+00 0.737D+00
 Coeff:      0.163D+00 0.837D+00
 Gap=     0.265 Goal=   None    Shift=    0.000
 RMSDP=8.43D-04 MaxDP=3.26D-02 DE=-6.33D-02 OVMax= 1.53D-01

 Cycle   3  Pass 1  IDiag  1:
 RMSU=  7.10D-04    CP:  9.79D-01  6.93D-01
 E= -362.733302121585     Delta-E=       -0.097132513728 Rises=F Damp=F
 DIIS: error= 6.22D-03 at cycle   3 NSaved=   3.
 NSaved= 3 IEnMin= 3 EnMin= -362.733302121585     IErMin= 2 ErrMin= 5.31D-03
 ErrMax= 6.22D-03  0.00D+00 EMaxC= 1.00D-01 BMatC= 2.86D-02 BMatP= 3.05D-02
 IDIUse=3 WtCom= 9.38D-01 WtEn= 6.22D-02
 Coeff-Com:  0.288D-02 0.491D+00 0.506D+00
 Coeff-En:   0.000D+00 0.000D+00 0.100D+01
 Coeff:      0.270D-02 0.460D+00 0.537D+00
 Gap=     0.252 Goal=   None    Shift=    0.000
 RMSDP=4.67D-04 MaxDP=2.32D-02 DE=-9.71D-02 OVMax= 5.55D-02

 Cycle   4  Pass 1  IDiag  1:
 RMSU=  2.75D-04    CP:  9.81D-01  7.82D-01  5.04D-01
 E= -362.752760986494     Delta-E=       -0.019458864909 Rises=F Damp=F
 DIIS: error= 1.99D-03 at cycle   4 NSaved=   4.
 NSaved= 4 IEnMin= 4 EnMin= -362.752760986494     IErMin= 4 ErrMin= 1.99D-03
 ErrMax= 1.99D-03  0.00D+00 EMaxC= 1.00D-01 BMatC= 3.64D-03 BMatP= 2.86D-02
 IDIUse=3 WtCom= 9.80D-01 WtEn= 1.99D-02
 Coeff-Com: -0.147D-01 0.107D+00 0.293D+00 0.615D+00
 Coeff-En:   0.000D+00 0.000D+00 0.114D+00 0.886D+00
 Coeff:     -0.144D-01 0.105D+00 0.289D+00 0.620D+00
 Gap=     0.246 Goal=   None    Shift=    0.000
 RMSDP=1.65D-04 MaxDP=6.02D-03 DE=-1.95D-02 OVMax= 1.73D-02

 Cycle   5  Pass 1  IDiag  1:
 RMSU=  8.31D-05    CP:  9.80D-01  7.58D-01  6.51D-01  6.74D-01
 E= -362.755403531268     Delta-E=       -0.002642544774 Rises=F Damp=F
 DIIS: error= 5.80D-04 at cycle   5 NSaved=   5.
 NSaved= 5 IEnMin= 5 EnMin= -362.755403531268     IErMin= 5 ErrMin= 5.80D-04
 ErrMax= 5.80D-04  0.00D+00 EMaxC= 1.00D-01 BMatC= 3.18D-04 BMatP= 3.64D-03
 IDIUse=3 WtCom= 9.94D-01 WtEn= 5.80D-03
 Coeff-Com: -0.740D-02 0.286D-01 0.128D+00 0.349D+00 0.502D+00
 Coeff-En:   0.000D+00 0.000D+00 0.000D+00 0.000D+00 0.100D+01
 Coeff:     -0.735D-02 0.284D-01 0.127D+00 0.347D+00 0.505D+00
 Gap=     0.246 Goal=   None    Shift=    0.000
 RMSDP=4.58D-05 MaxDP=1.91D-03 DE=-2.64D-03 OVMax= 4.99D-03

 Cycle   6  Pass 1  IDiag  1:
 RMSU=  2.03D-05    CP:  9.80D-01  7.66D-01  6.40D-01  7.31D-01  5.77D-01
 E= -362.755661202798     Delta-E=       -0.000257671530 Rises=F Damp=F
 DIIS: error= 1.31D-04 at cycle   6 NSaved=   6.
 NSaved= 6 IEnMin= 6 EnMin= -362.755661202798     IErMin= 6 ErrMin= 1.31D-04
 ErrMax= 1.31D-04  0.00D+00 EMaxC= 1.00D-01 BMatC= 1.38D-05 BMatP= 3.18D-04
 IDIUse=3 WtCom= 9.99D-01 WtEn= 1.31D-03
 Coeff-Com: -0.201D-02 0.265D-02 0.313D-01 0.101D+00 0.233D+00 0.634D+00
 Coeff-En:   0.000D+00 0.000D+00 0.000D+00 0.000D+00 0.000D+00 0.100D+01
 Coeff:     -0.200D-02 0.265D-02 0.313D-01 0.101D+00 0.233D+00 0.635D+00
 Gap=     0.246 Goal=   None    Shift=    0.000
 RMSDP=8.03D-06 MaxDP=3.67D-04 DE=-2.58D-04 OVMax= 6.54D-04

 Cycle   7  Pass 1  IDiag  1:
 RMSU=  4.99D-06    CP:  9.80D-01  7.65D-01  6.41D-01  7.28D-01  6.15D-01
                    CP:  7.43D-01
 E= -362.755671483054     Delta-E=       -0.000010280257 Rises=F Damp=F
 DIIS: error= 2.41D-05 at cycle   7 NSaved=   7.
 NSaved= 7 IEnMin= 7 EnMin= -362.755671483054     IErMin= 7 ErrMin= 2.41D-05
 ErrMax= 2.41D-05  0.00D+00 EMaxC= 1.00D-01 BMatC= 3.55D-07 BMatP= 1.38D-05
 IDIUse=1 WtCom= 1.00D+00 WtEn= 0.00D+00
 Coeff-Com: -0.361D-03-0.505D-04 0.620D-02 0.212D-01 0.664D-01 0.225D+00
 Coeff-Com:  0.682D+00
 Coeff:     -0.361D-03-0.505D-04 0.620D-02 0.212D-01 0.664D-01 0.225D+00
 Coeff:      0.682D+00
 Gap=     0.246 Goal=   None    Shift=    0.000
 RMSDP=2.51D-06 MaxDP=7.24D-05 DE=-1.03D-05 OVMax= 1.41D-04

 Cycle   8  Pass 1  IDiag  1:
 RMSU=  1.56D-06    CP:  9.80D-01  7.65D-01  6.42D-01  7.30D-01  6.24D-01
                    CP:  7.58D-01  7.73D-01
 E= -362.755671765451     Delta-E=       -0.000000282397 Rises=F Damp=F
 DIIS: error= 6.85D-06 at cycle   8 NSaved=   8.
 NSaved= 8 IEnMin= 8 EnMin= -362.755671765451     IErMin= 8 ErrMin= 6.85D-06
 ErrMax= 6.85D-06  0.00D+00 EMaxC= 1.00D-01 BMatC= 4.19D-08 BMatP= 3.55D-07
 IDIUse=1 WtCom= 1.00D+00 WtEn= 0.00D+00
 Coeff-Com:  0.722D-04-0.339D-03-0.619D-03-0.197D-02 0.363D-02 0.205D-01
 Coeff-Com:  0.271D+00 0.708D+00
 Coeff:      0.722D-04-0.339D-03-0.619D-03-0.197D-02 0.363D-02 0.205D-01
 Coeff:      0.271D+00 0.708D+00
 Gap=     0.246 Goal=   None    Shift=    0.000
 RMSDP=5.88D-07 MaxDP=2.41D-05 DE=-2.82D-07 OVMax= 3.96D-05

 Cycle   9  Pass 1  IDiag  1:
 RMSU=  3.14D-07    CP:  9.80D-01  7.65D-01  6.42D-01  7.30D-01  6.25D-01
                    CP:  7.64D-01  8.39D-01  8.26D-01
 E= -362.755671802862     Delta-E=       -0.000000037411 Rises=F Damp=F
 DIIS: error= 1.02D-06 at cycle   9 NSaved=   9.
 NSaved= 9 IEnMin= 9 EnMin= -362.755671802862     IErMin= 9 ErrMin= 1.02D-06
 ErrMax= 1.02D-06  0.00D+00 EMaxC= 1.00D-01 BMatC= 9.06D-10 BMatP= 4.19D-08
 IDIUse=1 WtCom= 1.00D+00 WtEn= 0.00D+00
 Coeff-Com:  0.328D-04-0.924D-04-0.375D-03-0.128D-02-0.985D-03-0.301D-02
 Coeff-Com:  0.499D-01 0.189D+00 0.767D+00
 Coeff:      0.328D-04-0.924D-04-0.375D-03-0.128D-02-0.985D-03-0.301D-02
 Coeff:      0.499D-01 0.189D+00 0.767D+00
 Gap=     0.246 Goal=   None    Shift=    0.000
 RMSDP=1.29D-07 MaxDP=3.01D-06 DE=-3.74D-08 OVMax= 7.61D-06

 Cycle  10  Pass 1  IDiag  1:
 RMSU=  8.09D-08    CP:  9.80D-01  7.65D-01  6.42D-01  7.30D-01  6.25D-01
                    CP:  7.64D-01  8.47D-01  8.58D-01  9.20D-01
 E= -362.755671803513     Delta-E=       -0.000000000651 Rises=F Damp=F
 DIIS: error= 9.26D-07 at cycle  10 NSaved=  10.
 NSaved=10 IEnMin=10 EnMin= -362.755671803513     IErMin=10 ErrMin= 9.26D-07
 ErrMax= 9.26D-07  0.00D+00 EMaxC= 1.00D-01 BMatC= 2.60D-10 BMatP= 9.06D-10
 IDIUse=1 WtCom= 1.00D+00 WtEn= 0.00D+00
 Coeff-Com:  0.117D-04-0.268D-04-0.149D-03-0.523D-03-0.678D-03-0.301D-02
 Coeff-Com:  0.874D-02 0.548D-01 0.406D+00 0.534D+00
 Coeff:      0.117D-04-0.268D-04-0.149D-03-0.523D-03-0.678D-03-0.301D-02
 Coeff:      0.874D-02 0.548D-01 0.406D+00 0.534D+00
 Gap=     0.246 Goal=   None    Shift=    0.000
 RMSDP=4.64D-08 MaxDP=1.93D-06 DE=-6.51D-10 OVMax= 3.39D-06

 Cycle  11  Pass 1  IDiag  1:
 RMSU=  3.54D-08    CP:  9.80D-01  7.65D-01  6.42D-01  7.30D-01  6.25D-01
                    CP:  7.64D-01  8.47D-01  8.62D-01  9.55D-01  6.85D-01
 E= -362.755671803688     Delta-E=       -0.000000000175 Rises=F Damp=F
 DIIS: error= 2.45D-07 at cycle  11 NSaved=  11.
 NSaved=11 IEnMin=11 EnMin= -362.755671803688     IErMin=11 ErrMin= 2.45D-07
 ErrMax= 2.45D-07  0.00D+00 EMaxC= 1.00D-01 BMatC= 2.02D-11 BMatP= 2.60D-10
 IDIUse=1 WtCom= 1.00D+00 WtEn= 0.00D+00
 Coeff-Com: -0.872D-06 0.398D-05 0.260D-05 0.567D-05-0.631D-04-0.564D-03
 Coeff-Com: -0.470D-02-0.106D-01 0.243D-01 0.231D+00 0.760D+00
 Coeff:     -0.872D-06 0.398D-05 0.260D-05 0.567D-05-0.631D-04-0.564D-03
 Coeff:     -0.470D-02-0.106D-01 0.243D-01 0.231D+00 0.760D+00
 Gap=     0.246 Goal=   None    Shift=    0.000
 RMSDP=1.38D-08 MaxDP=4.47D-07 DE=-1.75D-10 OVMax= 1.12D-06

 Cycle  12  Pass 1  IDiag  1:
 RMSU=  6.73D-09    CP:  9.80D-01  7.65D-01  6.42D-01  7.30D-01  6.25D-01
                    CP:  7.64D-01  8.47D-01  8.65D-01  9.71D-01  7.92D-01
                    CP:  9.03D-01
 E= -362.755671803705     Delta-E=       -0.000000000017 Rises=F Damp=F
 DIIS: error= 2.17D-08 at cycle  12 NSaved=  12.
 NSaved=12 IEnMin=12 EnMin= -362.755671803705     IErMin=12 ErrMin= 2.17D-08
 ErrMax= 2.17D-08  0.00D+00 EMaxC= 1.00D-01 BMatC= 5.19D-13 BMatP= 2.02D-11
 IDIUse=1 WtCom= 1.00D+00 WtEn= 0.00D+00
 Coeff-Com: -0.674D-06 0.209D-05 0.744D-05 0.204D-04 0.124D-04-0.531D-04
 Coeff-Com: -0.176D-02-0.523D-02-0.897D-02 0.474D-01 0.204D+00 0.764D+00
 Coeff:     -0.674D-06 0.209D-05 0.744D-05 0.204D-04 0.124D-04-0.531D-04
 Coeff:     -0.176D-02-0.523D-02-0.897D-02 0.474D-01 0.204D+00 0.764D+00
 Gap=     0.246 Goal=   None    Shift=    0.000
 RMSDP=2.71D-09 MaxDP=7.07D-08 DE=-1.71D-11 OVMax= 2.22D-07

 Error on total polarization charges =  0.01057
 SCF Done:  E(RPBE1PBE) =  -362.755671804     A.U. after   12 cycles
            NFock= 12  Conv=0.27D-08     -V/T= 2.0049
 KE= 3.609876260571D+02 PE=-1.471814461710D+03 EE= 4.366985734792D+02
 Leave Link  502 at Thu Aug 29 03:45:41 2024, MaxMem=  8589934592 cpu:             293.0 elap:              12.3
 (Enter /share/apps/g16.b01_avx2/g16/l601.exe)
 Copying SCF densities to generalized density rwf, IOpCl= 0 IROHF=0.

 **********************************************************************

            Population analysis using the SCF Density.

 **********************************************************************

 Orbital symmetries:
       Occupied  (A) (A) (A) (A) (A) (A) (A) (A) (A) (A) (A) (A)
                 (A) (A) (A) (A) (A) (A) (A) (A) (A) (A) (A) (A)
                 (A) (A) (A) (A)
       Virtual   (A) (A) (A) (A) (A) (A) (A) (A) (A) (A) (A) (A)
                 (A) (A) (A) (A) (A) (A) (A) (A) (A) (A) (A) (A)
                 (A) (A) (A) (A) (A) (A) (A) (A) (A) (A) (A) (A)
                 (A) (A) (A) (A) (A) (A) (A) (A) (A) (A) (A) (A)
                 (A) (A) (A) (A) (A) (A) (A) (A) (A) (A) (A) (A)
                 (A) (A) (A) (A) (A) (A) (A) (A) (A) (A) (A) (A)
                 (A) (A) (A) (A) (A) (A) (A) (A) (A) (A) (A) (A)
                 (A) (A) (A) (A) (A) (A) (A) (A) (A) (A) (A) (A)
                 (A) (A) (A) (A) (A) (A) (A) (A) (A) (A) (A) (A)
                 (A) (A) (A) (A) (A) (A) (A) (A) (A) (A) (A) (A)
                 (A) (A) (A) (A) (A) (A) (A) (A) (A) (A) (A) (A)
                 (A) (A) (A) (A) (A) (A) (A) (A) (A) (A) (A) (A)
                 (A) (A) (A) (A) (A) (A) (A) (A) (A) (A) (A) (A)
                 (A) (A) (A) (A) (A) (A) (A) (A) (A) (A) (A) (A)
                 (A) (A) (A) (A) (A) (A) (A) (A) (A) (A) (A) (A)
                 (A) (A) (A) (A) (A) (A) (A) (A) (A) (A) (A) (A)
                 (A) (A) (A) (A) (A) (A) (A) (A) (A) (A) (A) (A)
                 (A) (A) (A) (A) (A) (A) (A) (A) (A) (A) (A) (A)
                 (A) (A) (A) (A) (A) (A) (A) (A) (A) (A) (A) (A)
                 (A) (A) (A) (A) (A) (A) (A) (A) (A) (A) (A) (A)
                 (A) (A) (A)
 The electronic state is 1-A.
 Alpha  occ. eigenvalues --  -19.22592 -19.20249 -14.41615 -10.35060 -10.28291
 Alpha  occ. eigenvalues --  -10.25730 -10.23877  -1.07859  -1.06069  -0.94107
 Alpha  occ. eigenvalues --   -0.77728  -0.71309  -0.68173  -0.59208  -0.54019
 Alpha  occ. eigenvalues --   -0.51371  -0.50966  -0.47514  -0.46841  -0.45520
 Alpha  occ. eigenvalues --   -0.42349  -0.41169  -0.40261  -0.38670  -0.35695
 Alpha  occ. eigenvalues --   -0.30352  -0.29177  -0.27714
 Alpha virt. eigenvalues --   -0.03090   0.04872   0.06905   0.08863   0.10433
 Alpha virt. eigenvalues --    0.10853   0.11275   0.12212   0.13576   0.14188
 Alpha virt. eigenvalues --    0.15371   0.16449   0.17463   0.18717   0.20256
 Alpha virt. eigenvalues --    0.21803   0.22900   0.24381   0.25962   0.26373
 Alpha virt. eigenvalues --    0.29156   0.29465   0.32909   0.33399   0.34490
 Alpha virt. eigenvalues --    0.36432   0.37377   0.38634   0.39121   0.40995
 Alpha virt. eigenvalues --    0.42272   0.43582   0.44205   0.46269   0.47004
 Alpha virt. eigenvalues --    0.48321   0.49090   0.49270   0.49833   0.52341
 Alpha virt. eigenvalues --    0.52556   0.53376   0.54136   0.56219   0.57570
 Alpha virt. eigenvalues --    0.59143   0.61403   0.64352   0.67447   0.68903
 Alpha virt. eigenvalues --    0.70263   0.72652   0.74662   0.79153   0.80414
 Alpha virt. eigenvalues --    0.83650   0.85004   0.86224   0.88876   0.91863
 Alpha virt. eigenvalues --    0.93486   0.94283   0.98321   1.00283   1.01441
 Alpha virt. eigenvalues --    1.02638   1.06206   1.09898   1.11458   1.14254
 Alpha virt. eigenvalues --    1.22572   1.24718   1.25898   1.30743   1.35341
 Alpha virt. eigenvalues --    1.38340   1.42679   1.44888   1.46806   1.47506
 Alpha virt. eigenvalues --    1.49906   1.51930   1.53075   1.54368   1.55135
 Alpha virt. eigenvalues --    1.55763   1.56868   1.57860   1.58751   1.61472
 Alpha virt. eigenvalues --    1.63210   1.65883   1.67288   1.71632   1.73840
 Alpha virt. eigenvalues --    1.74806   1.76680   1.84750   1.85721   1.88335
 Alpha virt. eigenvalues --    1.90197   1.92555   1.93885   1.95025   1.97212
 Alpha virt. eigenvalues --    2.00092   2.00969   2.03242   2.05336   2.06494
 Alpha virt. eigenvalues --    2.10358   2.15687   2.16364   2.20039   2.21457
 Alpha virt. eigenvalues --    2.23176   2.25580   2.27665   2.31036   2.32127
 Alpha virt. eigenvalues --    2.35922   2.36558   2.37588   2.40810   2.48015
 Alpha virt. eigenvalues --    2.48871   2.50654   2.51295   2.53270   2.57144
 Alpha virt. eigenvalues --    2.57223   2.59140   2.59634   2.63054   2.65811
 Alpha virt. eigenvalues --    2.66337   2.69116   2.70751   2.74542   2.75877
 Alpha virt. eigenvalues --    2.77782   2.80861   2.82723   2.88355   2.92871
 Alpha virt. eigenvalues --    2.96122   3.00411   3.04532   3.05255   3.06008
 Alpha virt. eigenvalues --    3.08700   3.09784   3.11649   3.13754   3.15629
 Alpha virt. eigenvalues --    3.16702   3.17337   3.20502   3.21868   3.25158
 Alpha virt. eigenvalues --    3.26116   3.27193   3.28604   3.30058   3.32654
 Alpha virt. eigenvalues --    3.36781   3.38395   3.41000   3.43272   3.44683
 Alpha virt. eigenvalues --    3.49476   3.51449   3.55020   3.55905   3.58640
 Alpha virt. eigenvalues --    3.58870   3.60756   3.65588   3.66717   3.68056
 Alpha virt. eigenvalues --    3.76943   3.80598   3.84489   3.87672   3.96373
 Alpha virt. eigenvalues --    4.01022   4.06094   4.11489   4.15894   4.24256
 Alpha virt. eigenvalues --    4.27814   4.35879   4.38956   4.40335   4.41651
 Alpha virt. eigenvalues --    4.45708   4.47191   4.51452   4.57834   4.63613
 Alpha virt. eigenvalues --    4.75775   4.80159   4.84646   4.98591   4.99826
 Alpha virt. eigenvalues --    5.06164   5.13697   5.16597   5.21535   5.23137
 Alpha virt. eigenvalues --    5.26233   5.34976   5.36499   5.44995   5.47296
 Alpha virt. eigenvalues --    5.57449   5.69801   5.72967   5.77822   5.81598
 Alpha virt. eigenvalues --    5.84190   6.02622   6.11809   6.15440   6.21815
 Alpha virt. eigenvalues --    6.40186   6.44109   6.54037   6.70998   6.72636
 Alpha virt. eigenvalues --    6.81385   6.83615   7.01246   7.03221   7.18626
 Alpha virt. eigenvalues --    7.26477  22.40869  22.51048  22.58535  22.92802
 Alpha virt. eigenvalues --   32.24961  43.88137  44.10716
          Condensed to atoms (all electrons):
               1          2          3          4          5          6
     1  C    4.514455   0.618343   0.386210  -0.028843   0.341603  -0.039944
     2  O    0.618343   7.973309  -0.107868   0.004207  -0.074164  -0.009393
     3  N    0.386210  -0.107868   6.541013   0.359877  -0.075810   0.280754
     4  H   -0.028843   0.004207   0.359877   0.453634  -0.000869  -0.035276
     5  C    0.341603  -0.074164  -0.075810  -0.000869   4.874378   0.006666
     6  C   -0.039944  -0.009393   0.280754  -0.035276   0.006666   4.857516
     7  H   -0.002099   0.004277  -0.057048  -0.005925   0.001316   0.434610
     8  H    0.008132   0.002212  -0.027866  -0.004025   0.000126   0.397896
     9  H   -0.015388   0.011988  -0.028130   0.007676   0.001076   0.407777
    10  O   -0.032089  -0.000317  -0.002032   0.003572   0.276274  -0.001721
    11  H   -0.007569   0.005629   0.005132   0.001093   0.389109  -0.000894
    12  H   -0.043824   0.004525   0.010788  -0.004642   0.407780   0.000449
    13  C    0.001724  -0.000332  -0.000818  -0.000051  -0.044892   0.000048
    14  H   -0.000213   0.000018   0.000032  -0.000020   0.008714   0.000004
    15  H    0.000780  -0.000072  -0.000094   0.000068  -0.010527  -0.000007
    16  H   -0.000683  -0.000004   0.000141  -0.000131  -0.006912  -0.000006
               7          8          9         10         11         12
     1  C   -0.002099   0.008132  -0.015388  -0.032089  -0.007569  -0.043824
     2  O    0.004277   0.002212   0.011988  -0.000317   0.005629   0.004525
     3  N   -0.057048  -0.027866  -0.028130  -0.002032   0.005132   0.010788
     4  H   -0.005925  -0.004025   0.007676   0.003572   0.001093  -0.004642
     5  C    0.001316   0.000126   0.001076   0.276274   0.389109   0.407780
     6  C    0.434610   0.397896   0.407777  -0.001721  -0.000894   0.000449
     7  H    0.540207  -0.026083  -0.033063   0.000709  -0.000097   0.000256
     8  H   -0.026083   0.521985  -0.018356   0.000001   0.000019  -0.000172
     9  H   -0.033063  -0.018356   0.522561  -0.000012   0.000035  -0.000270
    10  O    0.000709   0.000001  -0.000012   8.017045  -0.044564  -0.045759
    11  H   -0.000097   0.000019   0.000035  -0.044564   0.572086  -0.050766
    12  H    0.000256  -0.000172  -0.000270  -0.045759  -0.050766   0.585972
    13  C    0.000025   0.000001   0.000004   0.263764  -0.004697  -0.006107
    14  H   -0.000003   0.000000  -0.000000  -0.028277  -0.000064   0.000085
    15  H    0.000004   0.000000   0.000000  -0.045171   0.014936  -0.005771
    16  H   -0.000005  -0.000001   0.000001  -0.045006  -0.007402   0.014506
              13         14         15         16
     1  C    0.001724  -0.000213   0.000780  -0.000683
     2  O   -0.000332   0.000018  -0.000072  -0.000004
     3  N   -0.000818   0.000032  -0.000094   0.000141
     4  H   -0.000051  -0.000020   0.000068  -0.000131
     5  C   -0.044892   0.008714  -0.010527  -0.006912
     6  C    0.000048   0.000004  -0.000007  -0.000006
     7  H    0.000025  -0.000003   0.000004  -0.000005
     8  H    0.000001   0.000000   0.000000  -0.000001
     9  H    0.000004  -0.000000   0.000000   0.000001
    10  O    0.263764  -0.028277  -0.045171  -0.045006
    11  H   -0.004697  -0.000064   0.014936  -0.007402
    12  H   -0.006107   0.000085  -0.005771   0.014506
    13  C    4.773389   0.396552   0.424593   0.420934
    14  H    0.396552   0.521221  -0.023598  -0.022568
    15  H    0.424593  -0.023598   0.565232  -0.050791
    16  H    0.420934  -0.022568  -0.050791   0.570078
 Mulliken charges:
               1
     1  C    0.299404
     2  O   -0.432359
     3  N   -0.284282
     4  H    0.249653
     5  C   -0.093868
     6  C   -0.298479
     7  H    0.142917
     8  H    0.146129
     9  H    0.144100
    10  O   -0.316417
    11  H    0.128013
    12  H    0.132949
    13  C   -0.224139
    14  H    0.148115
    15  H    0.130414
    16  H    0.127849
 Sum of Mulliken charges =  -0.00000
 Mulliken charges with hydrogens summed into heavy atoms:
               1
     1  C    0.299404
     2  O   -0.432359
     3  N   -0.034628
     5  C    0.167095
     6  C    0.134667
    10  O   -0.316417
    13  C    0.182238
 Electronic spatial extent (au):  <R**2>=           1022.5726
 Charge=             -0.0000 electrons
 Dipole moment (field-independent basis, Debye):
    X=              2.1060    Y=             -3.5894    Z=              1.6295  Tot=              4.4693
 Quadrupole moment (field-independent basis, Debye-Ang):
   XX=            -34.2622   YY=            -44.8109   ZZ=            -43.9759
   XY=              4.9319   XZ=              2.8408   YZ=              1.5482
 Traceless Quadrupole moment (field-independent basis, Debye-Ang):
   XX=              6.7542   YY=             -3.7946   ZZ=             -2.9596
   XY=              4.9319   XZ=              2.8408   YZ=              1.5482
 Octapole moment (field-independent basis, Debye-Ang**2):
  XXX=             17.6442  YYY=            -12.7502  ZZZ=             -2.9062  XYY=              3.3482
  XXY=             -8.8334  XXZ=             -5.5942  XZZ=              4.4446  YZZ=             -0.4381
  YYZ=              3.3198  XYZ=             -1.6566
 Hexadecapole moment (field-independent basis, Debye-Ang**3):
 XXXX=           -903.7573 YYYY=           -198.4494 ZZZZ=           -114.5192 XXXY=              0.3251
 XXXZ=             -4.6093 YYYX=             15.2623 YYYZ=             -0.1400 ZZZX=              2.7294
 ZZZY=              1.2980 XXYY=           -193.1339 XXZZ=           -191.6862 YYZZ=            -50.5751
 XXYZ=              5.7713 YYXZ=             -2.6923 ZZXY=             -4.7275
 N-N= 3.113725903702D+02 E-N=-1.471814460607D+03  KE= 3.609876260571D+02
 No NMR shielding tensors so no spin-rotation constants.
 Leave Link  601 at Thu Aug 29 03:45:41 2024, MaxMem=  8589934592 cpu:               2.2 elap:               0.1
 (Enter /share/apps/g16.b01_avx2/g16/l701.exe)
 ... and contract with generalized density number  0.
 Compute integral first derivatives.
 R6Disp: Adding Grimme-D3 dispersion energy 1st derivatives to the gradient.
   1 Symmetry operations used in ECPInt.
 ECPInt:  NShTT=    6441 NPrTT=   19096 LenC2=    6230 LenP2D=   14728.
 LDataN:  DoStor=T MaxTD1= 7 Len=  274
 D1PCM: PCM CHGder 1st derivatives, ID1Alg=3 FixD1E=F DoIter=F DoCFld=F I1PDM=0.
 GePol: Maximum number of non-zero 1st derivatives   =     228
 Leave Link  701 at Thu Aug 29 03:45:41 2024, MaxMem=  8589934592 cpu:              11.0 elap:               0.5
 (Enter /share/apps/g16.b01_avx2/g16/l702.exe)
 L702 exits ... SP integral derivatives will be done elsewhere.
 Leave Link  702 at Thu Aug 29 03:45:41 2024, MaxMem=  8589934592 cpu:               0.4 elap:               0.0
 (Enter /share/apps/g16.b01_avx2/g16/l703.exe)
 Integral derivatives from FoFJK, PRISM(SPDF).
 Compute integral first derivatives, UseDBF=F ICtDFT=           0.
 Calling FoFJK, ICntrl=      2127 FMM=F ISym2X=0 I1Cent= 0 IOpClX= 0 NMat=1 NMatS=1 NMatT=0.
 FoFJK:  IHMeth= 1 ICntrl=    2127 DoSepK=F KAlg= 0 I1Cent=           0 FoldK=F
 IRaf=         0 NMat=       1 IRICut=       1 DoRegI=T DoRafI=F ISym2E= 0 IDoP0=0 IntGTp=1.
 FoFCou: FMM=F IPFlag=           0 FMFlag=      100000 FMFlg1=         800
         NFxFlg=           0 DoJE=F BraDBF=F KetDBF=F FulRan=T
         wScrn=  0.000000 ICntrl=      2127 IOpCl=  0 I1Cent=           0 NGrid=           0
         NMat0=    1 NMatS0=      1 NMatT0=    0 NMatD0=    1 NMtDS0=    0 NMtDT0=    0
 Symmetry not used in FoFCou.
 Leave Link  703 at Thu Aug 29 03:45:45 2024, MaxMem=  8589934592 cpu:              89.8 elap:               3.7
 (Enter /share/apps/g16.b01_avx2/g16/l716.exe)
 Dipole        = 8.28566803D-01-1.41219424D+00 6.41103774D-01
 ***** Axes restored to original set *****
 -------------------------------------------------------------------
 Center     Atomic                   Forces (Hartrees/Bohr)
 Number     Number              X              Y              Z
 -------------------------------------------------------------------
      1        6           0.007790953   -0.048927495    0.004694264
      2        8           0.030614867    0.058782183    0.002803962
      3        7          -0.065313760   -0.014919235   -0.025285051
      4        1           0.004049634    0.015099751    0.000288481
      5        6           0.021774849   -0.011740437   -0.018142631
      6        6          -0.002911280    0.013449341    0.011767609
      7        1          -0.000406630   -0.005553926   -0.015576428
      8        1           0.013199971    0.001200072    0.004019148
      9        1          -0.004282090   -0.009347439    0.005531093
     10        8          -0.000798801   -0.001154407    0.006463240
     11        1          -0.014581490   -0.005708703    0.007367815
     12        1           0.006912982    0.014554537    0.010686775
     13        6           0.013900624   -0.019224097    0.006946986
     14        1           0.003677367   -0.000462662   -0.013412278
     15        1          -0.017667470   -0.001596490    0.003392915
     16        1           0.004040273    0.015549007    0.008454100
 -------------------------------------------------------------------
 Cartesian Forces:  Max     0.065313760 RMS     0.018426468
 Leave Link  716 at Thu Aug 29 03:45:45 2024, MaxMem=  8589934592 cpu:               0.3 elap:               0.0
 (Enter /share/apps/g16.b01_avx2/g16/l103.exe)

 GradGradGradGradGradGradGradGradGradGradGradGradGradGradGradGradGradGrad
 Berny optimization.
 FormGI is forming the generalized inverse of G from B-inverse, IUseBI=4.
 Internal  Forces:  Max     0.066310042 RMS     0.014128478
 Search for a local minimum.
 Step number   1 out of a maximum of   72
 All quantities printed in internal units (Hartrees-Bohrs-Radians)
 RMS Force = .14128D-01 SwitMx=.10000D-02 MixMth= 1
 Mixed Optimization -- RFO/linear search
 Second derivative matrix not updated -- first step.
 ITU=  0
     Eigenvalues ---    0.00237   0.00448   0.00766   0.00766   0.01295
     Eigenvalues ---    0.01295   0.03399   0.06248   0.07241   0.07537
     Eigenvalues ---    0.07537   0.10344   0.10344   0.11287   0.11346
     Eigenvalues ---    0.13882   0.16000   0.16000   0.16000   0.16000
     Eigenvalues ---    0.16000   0.16000   0.22113   0.23464   0.25000
     Eigenvalues ---    0.25000   0.25000   0.28519   0.35740   0.35740
     Eigenvalues ---    0.37230   0.37230   0.37230   0.37230   0.37230
     Eigenvalues ---    0.37230   0.37230   0.37230   0.40989   0.40989
     Eigenvalues ---    0.47688   0.80209
 RFO step:  Lambda=-3.03295175D-02 EMin= 2.36824135D-03
 Linear search not attempted -- first point.
 Iteration  1 RMS(Cart)=  0.09381247 RMS(Int)=  0.00525968
 Iteration  2 RMS(Cart)=  0.01011356 RMS(Int)=  0.00126355
 Iteration  3 RMS(Cart)=  0.00004163 RMS(Int)=  0.00126324
 Iteration  4 RMS(Cart)=  0.00000008 RMS(Int)=  0.00126324
 ITry= 1 IFail=0 DXMaxC= 3.06D-01 DCOld= 1.00D+10 DXMaxT= 3.00D-01 DXLimC= 3.00D+00 Rises=F
 Variable       Old X    -DE/DX   Delta X   Delta X   Delta X     New X
                                 (Linear)    (Quad)   (Total)
    R1        2.37803  -0.06631   0.00000  -0.07966  -0.07966   2.29837
    R2        2.77790  -0.05849   0.00000  -0.15085  -0.15085   2.62705
    R3        2.91018  -0.01903   0.00000  -0.06031  -0.06031   2.84987
    R4        1.88973   0.01335   0.00000   0.02633   0.02633   1.91605
    R5        2.77790   0.00085   0.00000   0.00218   0.00218   2.78008
    R6        2.70231  -0.01283   0.00000  -0.02916  -0.02916   2.67315
    R7        2.02201   0.01656   0.00000   0.04112   0.04112   2.06313
    R8        2.02201   0.01928   0.00000   0.04788   0.04788   2.06989
    R9        2.02201   0.01596   0.00000   0.03963   0.03963   2.06163
   R10        2.02201   0.01378   0.00000   0.03423   0.03423   2.05624
   R11        2.02201   0.01165   0.00000   0.02894   0.02894   2.05095
   R12        2.70231  -0.00791   0.00000  -0.01796  -0.01796   2.68434
   R13        2.02201   0.01320   0.00000   0.03279   0.03279   2.05480
   R14        2.02201   0.01792   0.00000   0.04452   0.04452   2.06652
   R15        2.02201   0.01797   0.00000   0.04462   0.04462   2.06663
    A1        2.09440   0.01049   0.00000   0.03741   0.03711   2.13151
    A2        2.09440   0.00729   0.00000   0.02602   0.02573   2.12012
    A3        2.09440  -0.01778   0.00000  -0.06343  -0.06372   2.03067
    A4        1.91063  -0.00787   0.00000  -0.00230  -0.00912   1.90151
    A5        1.91063   0.02385   0.00000   0.10506   0.10111   2.01175
    A6        1.91063   0.00106   0.00000   0.05476   0.05105   1.96169
    A7        1.91063  -0.01187   0.00000  -0.04880  -0.04887   1.86177
    A8        1.91063  -0.00241   0.00000  -0.02481  -0.02472   1.88591
    A9        1.91063   0.00411   0.00000   0.01771   0.01797   1.92861
   A10        1.91063   0.00691   0.00000   0.03215   0.03126   1.94189
   A11        1.91063   0.00368   0.00000   0.01845   0.01841   1.92904
   A12        1.91063  -0.00042   0.00000   0.00529   0.00501   1.91564
   A13        1.91063   0.00699   0.00000   0.03990   0.03987   1.95050
   A14        1.91063  -0.00309   0.00000  -0.01791  -0.01795   1.89268
   A15        1.91063  -0.00030   0.00000  -0.00311  -0.00327   1.90736
   A16        1.91063  -0.00104   0.00000  -0.00243  -0.00235   1.90828
   A17        1.91063  -0.00235   0.00000  -0.00903  -0.00918   1.90146
   A18        1.91063  -0.00020   0.00000  -0.00741  -0.00758   1.90306
   A19        1.91114   0.00365   0.00000   0.01302   0.01302   1.92416
   A20        1.91063  -0.00842   0.00000  -0.04697  -0.04688   1.86375
   A21        1.91063   0.00412   0.00000   0.02296   0.02276   1.93339
   A22        1.91063   0.00470   0.00000   0.02607   0.02588   1.93651
   A23        1.91063   0.00060   0.00000   0.00041   0.00048   1.91112
   A24        1.91063   0.00036   0.00000  -0.00079  -0.00068   1.90995
   A25        1.91063  -0.00135   0.00000  -0.00167  -0.00212   1.90852
    D1        2.61799   0.00533   0.00000   0.06119   0.06092   2.67891
    D2        0.52360  -0.00576   0.00000  -0.06881  -0.06836   0.45524
    D3       -0.52360   0.00378   0.00000   0.01686   0.01641  -0.50719
    D4       -2.61799  -0.00730   0.00000  -0.11314  -0.11287  -2.73087
    D5       -1.57080  -0.00102   0.00000  -0.02702  -0.02736  -1.59816
    D6        0.52360  -0.00130   0.00000  -0.03272  -0.03224   0.49136
    D7        2.61799  -0.00077   0.00000  -0.03059  -0.03053   2.58746
    D8        1.57080   0.00052   0.00000   0.01731   0.01683   1.58763
    D9       -2.61799   0.00024   0.00000   0.01161   0.01196  -2.60604
   D10       -0.52360   0.00077   0.00000   0.01374   0.01367  -0.50993
   D11        1.04720   0.00263   0.00000   0.04238   0.04426   1.09145
   D12        3.14159   0.00374   0.00000   0.05287   0.05456  -3.08704
   D13       -1.04720   0.00142   0.00000   0.03092   0.03271  -1.01449
   D14       -1.04720  -0.00298   0.00000  -0.05268  -0.05437  -1.10157
   D15        1.04720  -0.00187   0.00000  -0.04219  -0.04407   1.00313
   D16        3.14159  -0.00419   0.00000  -0.06415  -0.06592   3.07567
   D17        3.04434  -0.00149   0.00000  -0.00280  -0.00301   3.04133
   D18        0.94995   0.00450   0.00000   0.03778   0.03844   0.98839
   D19       -1.14445  -0.00148   0.00000   0.00032  -0.00013  -1.14457
   D20        3.10181   0.00022   0.00000   0.00476   0.00473   3.10654
   D21       -1.08698  -0.00168   0.00000  -0.00944  -0.00985  -1.09683
   D22        1.00742   0.00206   0.00000   0.01853   0.01897   1.02639
         Item               Value     Threshold  Converged?
 Maximum Force            0.066310     0.000450     NO 
 RMS     Force            0.014128     0.000300     NO 
 Maximum Displacement     0.306331     0.001800     NO 
 RMS     Displacement     0.098980     0.001200     NO 
 Predicted change in Energy=-1.707081D-02
 Lowest energy point so far.  Saving SCF results.
 GradGradGradGradGradGradGradGradGradGradGradGradGradGradGradGradGradGrad

 Leave Link  103 at Thu Aug 29 03:45:45 2024, MaxMem=  8589934592 cpu:               0.4 elap:               0.0
 (Enter /share/apps/g16.b01_avx2/g16/l202.exe)
                          Input orientation:                          
 ---------------------------------------------------------------------
 Center     Atomic      Atomic             Coordinates (Angstroms)
 Number     Number       Type             X           Y           Z
 ---------------------------------------------------------------------
      1          6           0        0.592236    0.772194    0.111481
      2          8           0       -0.015133   -0.281445    0.097216
      3          7           0        1.957351    0.835191    0.366576
      4          1           0        2.337611    1.663041   -0.078533
      5          6           0       -0.112678    2.090171   -0.089411
      6          6           0        2.715557   -0.380041    0.030972
      7          1           0        2.670611   -0.602932   -1.036040
      8          1           0        3.752649   -0.230764    0.324486
      9          1           0        2.308606   -1.220572    0.583974
     10          8           0       -0.070478    2.365706   -1.476246
     11          1           0       -1.140744    1.980961    0.261435
     12          1           0        0.388957    2.883476    0.475207
     13          6           0       -0.830372    3.529465   -1.769551
     14          1           0       -0.730325    3.708969   -2.837307
     15          1           0       -1.884616    3.376861   -1.522270
     16          1           0       -0.450298    4.394001   -1.218088
 ---------------------------------------------------------------------
                    Distance matrix (angstroms):
                    1          2          3          4          5
     1  C    0.000000
     2  O    1.216246   0.000000
     3  N    1.390173   2.282569   0.000000
     4  H    1.968768   3.057338   1.013931   0.000000
     5  C    1.508086   2.380946   2.463314   2.487262   0.000000
     6  C    2.417151   2.733271   1.471154   2.080629   3.757039
     7  H    2.743614   2.932719   2.131729   2.482406   3.986929
     8  H    3.322575   3.774970   2.088331   2.398178   4.527560
     9  H    2.672132   2.553166   2.096855   2.958882   4.156571
    10  O    2.345069   3.079976   3.138560   2.871625   1.414572
    11  H    2.118212   2.532281   3.304850   3.509359   1.091760
    12  H    2.152006   3.212925   2.582079   2.365024   1.095337
    13  C    3.628311   4.321165   4.426461   4.047122   2.325839
    14  H    4.366826   5.004630   5.074157   4.605311   3.248527
    15  H    3.948193   4.415983   4.978809   4.780037   2.616949
    16  H    3.996514   4.876391   4.579636   4.065607   2.587573
                    6          7          8          9         10
     6  C    0.000000
     7  H    1.090970   0.000000
     8  H    1.088115   1.777736   0.000000
     9  H    1.085316   1.771149   1.769834   0.000000
    10  O    4.191995   4.064500   4.959898   4.771366   0.000000
    11  H    4.527526   4.783969   5.370381   4.717187   2.076785
    12  H    4.032487   4.432251   4.586462   4.532118   2.070588
    13  C    5.576713   5.465494   6.287161   6.160772   1.420494
    14  H    6.068042   5.779569   6.753924   6.726116   2.022929
    15  H    6.139093   6.068382   6.942926   6.569305   2.077414
    16  H    5.862957   5.894281   6.436828   6.510177   2.079637
                   11         12         13         14         15
    11  H    0.000000
    12  H    1.788914   0.000000
    13  C    2.572761   2.634958   0.000000
    14  H    3.571646   3.592628   1.087352   0.000000
    15  H    2.384007   3.066345   1.093556   1.781012   0.000000
    16  H    2.913498   2.419356   1.093613   1.780324   1.784480
                   16
    16  H    0.000000
 Stoichiometry    C4H9NO2
 Framework group  C1[X(C4H9NO2)]
 Deg. of freedom    42
 Full point group                 C1      NOp   1
 RotChk:  IX=0 Diff= 2.64D-02
 Largest Abelian subgroup         C1      NOp   1
 Largest concise Abelian subgroup C1      NOp   1
                         Standard orientation:                         
 ---------------------------------------------------------------------
 Center     Atomic      Atomic             Coordinates (Angstroms)
 Number     Number       Type             X           Y           Z
 ---------------------------------------------------------------------
      1          6           0       -0.582490    0.464076    0.215289
      2          8           0       -0.977010    1.491658   -0.302093
      3          7           0       -1.437516   -0.592775    0.506111
      4          1           0       -0.905767   -1.456083    0.506032
      5          6           0        0.857303    0.293937    0.630467
      6          6           0       -2.641598   -0.676022   -0.335049
      7          1           0       -2.391330   -0.838377   -1.384441
      8          1           0       -3.253987   -1.501873    0.021241
      9          1           0       -3.205535    0.246994   -0.246017
     10          8           0        1.530378   -0.289224   -0.468581
     11          1           0        1.261153    1.281111    0.863560
     12          1           0        0.928602   -0.352796    1.511611
     13          6           0        2.924868   -0.362798   -0.208221
     14          1           0        3.379547   -0.849381   -1.067778
     15          1           0        3.350247    0.637393   -0.087650
     16          1           0        3.124244   -0.952190    0.691143
 ---------------------------------------------------------------------
 Rotational constants (GHZ):           6.0196683           1.3793450           1.2473978
 Leave Link  202 at Thu Aug 29 03:45:45 2024, MaxMem=  8589934592 cpu:               0.1 elap:               0.0
 (Enter /share/apps/g16.b01_avx2/g16/l301.exe)
 Standard basis: def2TZVP (5D, 7F)
 Ernie: Thresh=  0.10000D-02 Tol=  0.10000D-05 Strict=F.
 There are   306 symmetry adapted cartesian basis functions of A   symmetry.
 There are   271 symmetry adapted basis functions of A   symmetry.
   271 basis functions,   429 primitive gaussians,   306 cartesian basis functions
    28 alpha electrons       28 beta electrons
       nuclear repulsion energy       315.8109210072 Hartrees.
 IExCor= 1009 DFT=T Ex+Corr=PBE1PBE ExCW=0 ScaHFX=  0.250000
 ScaDFX=  0.750000  0.750000  1.000000  1.000000 ScalE2=  1.000000  1.000000
 IRadAn=  99590 IRanWt=     -1 IRanGd=            0 ICorTp=0 IEmpDi=131
 NAtoms=   16 NActive=   16 NUniq=   16 SFac= 1.00D+00 NAtFMM=   60 NAOKFM=F Big=F
 Integral buffers will be    131072 words long.
 Raffenetti 2 integral format.
 Two-electron integral symmetry is turned on.
 R6Disp:  Grimme-D3 Dispersion energy=       -0.0059255295 Hartrees.
 Nuclear repulsion after empirical dispersion term =      315.8049954778 Hartrees.
 ------------------------------------------------------------------------------
 Polarizable Continuum Model (PCM)
 =================================
 Model                : PCM.
 Atomic radii         : UFF (Universal Force Field).
 Polarization charges : Total charges.
 Charge compensation  : None.
 Solution method      : On-the-fly selection.
 Cavity type          : Scaled VdW (van der Waals Surface) (Alpha=1.100).
 Cavity algorithm     : GePol (No added spheres)
                        Default sphere list used, NSphG=   16.
                        Lebedev-Laikov grids with approx.  5.0 points / Ang**2.
                        Smoothing algorithm: York/Karplus (Gamma=1.0000).
                        Polarization charges: spherical gaussians, with
                                              point-specific exponents (IZeta= 3).
                        Self-potential: point-specific (ISelfS= 7).
                        Self-field    : sphere-specific E.n sum rule (ISelfD= 2).
 1st derivatives      : Analytical E(r).r(x)/FMM algorithm (CHGder, D1EAlg=3).
                        Cavity 1st derivative terms included.
 Solvent              : Water, Eps=  78.355300 Eps(inf)=   1.777849
 ------------------------------------------------------------------------------
 Spheres list:
 ISph  on   Nord     Re0    Alpha      Xe            Ye            Ze
    1   C      1    1.9255  1.100     -0.582490      0.464076      0.215289
    2   O      2    1.7500  1.100     -0.977010      1.491658     -0.302093
    3   N      3    1.8300  1.100     -1.437516     -0.592775      0.506111
    4   H      4    1.4430  1.100     -0.905767     -1.456083      0.506032
    5   C      5    1.9255  1.100      0.857303      0.293937      0.630467
    6   C      6    1.9255  1.100     -2.641598     -0.676022     -0.335049
    7   H      7    1.4430  1.100     -2.391330     -0.838377     -1.384441
    8   H      8    1.4430  1.100     -3.253987     -1.501873      0.021241
    9   H      9    1.4430  1.100     -3.205535      0.246994     -0.246017
   10   O     10    1.7500  1.100      1.530378     -0.289224     -0.468581
   11   H     11    1.4430  1.100      1.261153      1.281111      0.863560
   12   H     12    1.4430  1.100      0.928602     -0.352796      1.511611
   13   C     13    1.9255  1.100      2.924868     -0.362798     -0.208221
   14   H     14    1.4430  1.100      3.379547     -0.849381     -1.067778
   15   H     15    1.4430  1.100      3.350247      0.637393     -0.087650
   16   H     16    1.4430  1.100      3.124244     -0.952190      0.691143
 ------------------------------------------------------------------------------
 GePol: Number of generator spheres                  =      16
 GePol: Total number of spheres                      =      16
 GePol: Number of exposed spheres                    =      16 (100.00%)
 GePol: Number of points                             =    1342
 GePol: Average weight of points                     =       0.13
 GePol: Minimum weight of points                     =   0.21D-09
 GePol: Maximum weight of points                     =    0.20577
 GePol: Number of points with low weight             =      90
 GePol: Fraction of low-weight points (<1% of avg)   =       6.71%
 GePol: Cavity surface area                          =    178.279 Ang**2
 GePol: Cavity volume                                =    165.641 Ang**3
 Leave Link  301 at Thu Aug 29 03:45:45 2024, MaxMem=  8589934592 cpu:               0.7 elap:               0.0
 (Enter /share/apps/g16.b01_avx2/g16/l302.exe)
 NPDir=0 NMtPBC=     1 NCelOv=     1 NCel=       1 NClECP=     1 NCelD=      1
         NCelK=      1 NCelE2=     1 NClLst=     1 CellRange=     0.0.
 One-electron integrals computed using PRISM.
 One-electron integral symmetry used in STVInt
   1 Symmetry operations used in ECPInt.
 ECPInt:  NShTT=    6441 NPrTT=   19096 LenC2=    6236 LenP2D=   14803.
 LDataN:  DoStor=T MaxTD1= 6 Len=  172
 NBasis=   271 RedAO= T EigKep=  2.69D-04  NBF=   271
 NBsUse=   271 1.00D-06 EigRej= -1.00D+00 NBFU=   271
 Precomputing XC quadrature grid using
 IXCGrd= 4 IRadAn=       99590 IRanWt=          -1 IRanGd=           0 AccXCQ= 0.00D+00.
 Generated NRdTot=       0 NPtTot=           0 NUsed=           0 NTot=          32
 NSgBfM=   304   304   304   304   304 MxSgAt=    16 MxSgA2=    16.
 Leave Link  302 at Thu Aug 29 03:45:45 2024, MaxMem=  8589934592 cpu:               3.5 elap:               0.1
 (Enter /share/apps/g16.b01_avx2/g16/l303.exe)
 DipDrv:  MaxL=1.
 Leave Link  303 at Thu Aug 29 03:45:45 2024, MaxMem=  8589934592 cpu:               0.5 elap:               0.0
 (Enter /share/apps/g16.b01_avx2/g16/l401.exe)
 Initial guess from the checkpoint file:  "/scratch/Gau-1904075.chk"
 B after Tr=    -0.000000   -0.000000    0.000000
         Rot=    0.999954    0.008967   -0.003476    0.000120 Ang=   1.10 deg.
 Guess basis will be translated and rotated to current coordinates.
 JPrj=2 DoOrth=T DoCkMO=T.
 Generating alternative initial guess.
 ExpMin= 9.52D-02 ExpMax= 2.70D+04 ExpMxC= 9.22D+02 IAcc=4 IRadAn=    199590 AccDes= 0.00D+00
 Harris functional with IExCor= 1009 and IRadAn=  199590 diagonalized for initial guess.
 HarFok:  IExCor= 1009 AccDes= 0.00D+00 IRadAn=    199590 IDoV= 1 UseB2=F ITyADJ=14
 ICtDFT=  3500011 ScaDFX=  1.000000  1.000000  1.000000  1.000000
 FoFCou: FMM=F IPFlag=           0 FMFlag=      100000 FMFlg1=           0
         NFxFlg=           0 DoJE=T BraDBF=F KetDBF=T FulRan=T
         wScrn=  0.000000 ICntrl=       500 IOpCl=  0 I1Cent=   200000004 NGrid=           0
         NMat0=    1 NMatS0=      1 NMatT0=    0 NMatD0=    1 NMtDS0=    0 NMtDT0=    0
 Petite list used in FoFCou.
 Harris En= -362.865669021286    
 Leave Link  401 at Thu Aug 29 03:45:46 2024, MaxMem=  8589934592 cpu:              19.5 elap:               0.8
 (Enter /share/apps/g16.b01_avx2/g16/l502.exe)
 Integral symmetry usage will be decided dynamically.
 Closed shell SCF:
 Using DIIS extrapolation, IDIIS=  1040.
 NGot=  8589934592 LenX=  8589737094 LenY=  8589643017
 Requested convergence on RMS density matrix=1.00D-08 within 128 cycles.
 Requested convergence on MAX density matrix=1.00D-06.
 Requested convergence on             energy=1.00D-06.
 No special actions if energy rises.
 Fock matrices will be formed incrementally for  20 cycles.

 Cycle   1  Pass 1  IDiag  1:
 FoFJK:  IHMeth= 1 ICntrl=       0 DoSepK=F KAlg= 0 I1Cent=           0 FoldK=F
 IRaf= 940000000 NMat=       1 IRICut=       1 DoRegI=T DoRafI=F ISym2E= 0 IDoP0=0 IntGTp=1.
 FoFCou: FMM=F IPFlag=           0 FMFlag=      100000 FMFlg1=           0
         NFxFlg=           0 DoJE=F BraDBF=F KetDBF=F FulRan=T
         wScrn=  0.000000 ICntrl=         0 IOpCl=  0 I1Cent=           0 NGrid=           0
         NMat0=    1 NMatS0=      1 NMatT0=    0 NMatD0=    1 NMtDS0=    0 NMtDT0=    0
 Symmetry not used in FoFCou.
 Inv3:  Mode=1 IEnd=     5402892.
 Iteration    1 A*A^-1 deviation from unit magnitude is 2.66D-15 for    548.
 Iteration    1 A*A^-1 deviation from orthogonality  is 2.17D-15 for    872     35.
 Iteration    1 A^-1*A deviation from unit magnitude is 2.89D-15 for    603.
 Iteration    1 A^-1*A deviation from orthogonality  is 1.58D-15 for   1283    217.
 E= -362.758418657839    
 DIIS: error= 5.54D-03 at cycle   1 NSaved=   1.
 NSaved= 1 IEnMin= 1 EnMin= -362.758418657839     IErMin= 1 ErrMin= 5.54D-03
 ErrMax= 5.54D-03  0.00D+00 EMaxC= 1.00D-01 BMatC= 1.23D-02 BMatP= 1.23D-02
 IDIUse=3 WtCom= 9.45D-01 WtEn= 5.54D-02
 Coeff-Com:  0.100D+01
 Coeff-En:   0.100D+01
 Coeff:      0.100D+01
 Gap=     0.670 Goal=   None    Shift=    0.000
 GapD=    0.670 DampG=2.000 DampE=1.000 DampFc=2.0000 IDamp=-1.
 RMSDP=4.69D-04 MaxDP=1.03D-02              OVMax= 3.41D-02

 Cycle   2  Pass 1  IDiag  1:
 RMSU=  4.69D-04    CP:  9.99D-01
 E= -362.773339184162     Delta-E=       -0.014920526323 Rises=F Damp=F
 DIIS: error= 9.52D-04 at cycle   2 NSaved=   2.
 NSaved= 2 IEnMin= 2 EnMin= -362.773339184162     IErMin= 2 ErrMin= 9.52D-04
 ErrMax= 9.52D-04  0.00D+00 EMaxC= 1.00D-01 BMatC= 8.59D-04 BMatP= 1.23D-02
 IDIUse=3 WtCom= 9.90D-01 WtEn= 9.52D-03
 Coeff-Com:  0.602D-01 0.940D+00
 Coeff-En:   0.000D+00 0.100D+01
 Coeff:      0.596D-01 0.940D+00
 Gap=     0.269 Goal=   None    Shift=    0.000
 RMSDP=1.75D-04 MaxDP=6.14D-03 DE=-1.49D-02 OVMax= 1.10D-02

 Cycle   3  Pass 1  IDiag  1:
 RMSU=  1.69D-04    CP:  9.99D-01  1.10D+00
 E= -362.773465607910     Delta-E=       -0.000126423748 Rises=F Damp=F
 DIIS: error= 1.18D-03 at cycle   3 NSaved=   3.
 NSaved= 3 IEnMin= 3 EnMin= -362.773465607910     IErMin= 2 ErrMin= 9.52D-04
 ErrMax= 1.18D-03  0.00D+00 EMaxC= 1.00D-01 BMatC= 8.02D-04 BMatP= 8.59D-04
 IDIUse=3 WtCom= 9.88D-01 WtEn= 1.18D-02
 Coeff-Com: -0.321D-01 0.500D+00 0.532D+00
 Coeff-En:   0.000D+00 0.454D+00 0.546D+00
 Coeff:     -0.318D-01 0.499D+00 0.532D+00
 Gap=     0.267 Goal=   None    Shift=    0.000
 RMSDP=9.34D-05 MaxDP=3.20D-03 DE=-1.26D-04 OVMax= 7.41D-03

 Cycle   4  Pass 1  IDiag  1:
 RMSU=  3.47D-05    CP:  9.99D-01  1.10D+00  4.89D-01
 E= -362.774138304307     Delta-E=       -0.000672696397 Rises=F Damp=F
 DIIS: error= 2.57D-04 at cycle   4 NSaved=   4.
 NSaved= 4 IEnMin= 4 EnMin= -362.774138304307     IErMin= 4 ErrMin= 2.57D-04
 ErrMax= 2.57D-04  0.00D+00 EMaxC= 1.00D-01 BMatC= 3.14D-05 BMatP= 8.02D-04
 IDIUse=3 WtCom= 9.97D-01 WtEn= 2.57D-03
 Coeff-Com: -0.180D-01 0.217D+00 0.273D+00 0.529D+00
 Coeff-En:   0.000D+00 0.000D+00 0.000D+00 0.100D+01
 Coeff:     -0.179D-01 0.216D+00 0.272D+00 0.530D+00
 Gap=     0.266 Goal=   None    Shift=    0.000
 RMSDP=1.82D-05 MaxDP=7.59D-04 DE=-6.73D-04 OVMax= 2.09D-03

 Cycle   5  Pass 1  IDiag  1:
 RMSU=  1.37D-05    CP:  9.99D-01  1.10D+00  5.38D-01  7.70D-01
 E= -362.774156424690     Delta-E=       -0.000018120383 Rises=F Damp=F
 DIIS: error= 8.33D-05 at cycle   5 NSaved=   5.
 NSaved= 5 IEnMin= 5 EnMin= -362.774156424690     IErMin= 5 ErrMin= 8.33D-05
 ErrMax= 8.33D-05  0.00D+00 EMaxC= 1.00D-01 BMatC= 6.80D-06 BMatP= 3.14D-05
 IDIUse=1 WtCom= 1.00D+00 WtEn= 0.00D+00
 Coeff-Com: -0.261D-02 0.144D-01 0.449D-01 0.333D+00 0.610D+00
 Coeff:     -0.261D-02 0.144D-01 0.449D-01 0.333D+00 0.610D+00
 Gap=     0.266 Goal=   None    Shift=    0.000
 RMSDP=6.11D-06 MaxDP=2.81D-04 DE=-1.81D-05 OVMax= 7.70D-04

 Cycle   6  Pass 1  IDiag  1:
 RMSU=  3.24D-06    CP:  9.99D-01  1.11D+00  5.36D-01  8.85D-01  7.60D-01
 E= -362.774161726550     Delta-E=       -0.000005301860 Rises=F Damp=F
 DIIS: error= 2.20D-05 at cycle   6 NSaved=   6.
 NSaved= 6 IEnMin= 6 EnMin= -362.774161726550     IErMin= 6 ErrMin= 2.20D-05
 ErrMax= 2.20D-05  0.00D+00 EMaxC= 1.00D-01 BMatC= 2.31D-07 BMatP= 6.80D-06
 IDIUse=1 WtCom= 1.00D+00 WtEn= 0.00D+00
 Coeff-Com: -0.244D-03-0.569D-02 0.601D-02 0.122D+00 0.278D+00 0.600D+00
 Coeff:     -0.244D-03-0.569D-02 0.601D-02 0.122D+00 0.278D+00 0.600D+00
 Gap=     0.266 Goal=   None    Shift=    0.000
 RMSDP=1.69D-06 MaxDP=5.04D-05 DE=-5.30D-06 OVMax= 1.21D-04

 Cycle   7  Pass 1  IDiag  1:
 RMSU=  1.28D-06    CP:  9.99D-01  1.11D+00  5.41D-01  8.96D-01  7.85D-01
                    CP:  8.50D-01
 E= -362.774161886131     Delta-E=       -0.000000159581 Rises=F Damp=F
 DIIS: error= 1.12D-05 at cycle   7 NSaved=   7.
 NSaved= 7 IEnMin= 7 EnMin= -362.774161886131     IErMin= 7 ErrMin= 1.12D-05
 ErrMax= 1.12D-05  0.00D+00 EMaxC= 1.00D-01 BMatC= 4.15D-08 BMatP= 2.31D-07
 IDIUse=1 WtCom= 1.00D+00 WtEn= 0.00D+00
 Coeff-Com:  0.301D-03-0.574D-02-0.443D-02 0.750D-02 0.507D-01 0.321D+00
 Coeff-Com:  0.631D+00
 Coeff:      0.301D-03-0.574D-02-0.443D-02 0.750D-02 0.507D-01 0.321D+00
 Coeff:      0.631D+00
 Gap=     0.266 Goal=   None    Shift=    0.000
 RMSDP=7.09D-07 MaxDP=2.15D-05 DE=-1.60D-07 OVMax= 7.85D-05

 Cycle   8  Pass 1  IDiag  1:
 RMSU=  3.94D-07    CP:  9.99D-01  1.11D+00  5.41D-01  9.03D-01  8.04D-01
                    CP:  9.71D-01  8.17D-01
 E= -362.774161921419     Delta-E=       -0.000000035289 Rises=F Damp=F
 DIIS: error= 2.07D-06 at cycle   8 NSaved=   8.
 NSaved= 8 IEnMin= 8 EnMin= -362.774161921419     IErMin= 8 ErrMin= 2.07D-06
 ErrMax= 2.07D-06  0.00D+00 EMaxC= 1.00D-01 BMatC= 2.13D-09 BMatP= 4.15D-08
 IDIUse=1 WtCom= 1.00D+00 WtEn= 0.00D+00
 Coeff-Com:  0.105D-03-0.120D-02-0.191D-02-0.101D-01-0.896D-02 0.429D-01
 Coeff-Com:  0.214D+00 0.766D+00
 Coeff:      0.105D-03-0.120D-02-0.191D-02-0.101D-01-0.896D-02 0.429D-01
 Coeff:      0.214D+00 0.766D+00
 Gap=     0.266 Goal=   None    Shift=    0.000
 RMSDP=2.27D-07 MaxDP=5.95D-06 DE=-3.53D-08 OVMax= 2.99D-05

 Cycle   9  Pass 1  IDiag  1:
 RMSU=  1.39D-07    CP:  9.99D-01  1.11D+00  5.41D-01  9.05D-01  8.12D-01
                    CP:  9.93D-01  8.96D-01  9.69D-01
 E= -362.774161923891     Delta-E=       -0.000000002472 Rises=F Damp=F
 DIIS: error= 7.94D-07 at cycle   9 NSaved=   9.
 NSaved= 9 IEnMin= 9 EnMin= -362.774161923891     IErMin= 9 ErrMin= 7.94D-07
 ErrMax= 7.94D-07  0.00D+00 EMaxC= 1.00D-01 BMatC= 3.62D-10 BMatP= 2.13D-09
 IDIUse=1 WtCom= 1.00D+00 WtEn= 0.00D+00
 Coeff-Com:  0.139D-04 0.251D-03-0.270D-03-0.563D-02-0.109D-01-0.259D-01
 Coeff-Com:  0.943D-02 0.339D+00 0.694D+00
 Coeff:      0.139D-04 0.251D-03-0.270D-03-0.563D-02-0.109D-01-0.259D-01
 Coeff:      0.943D-02 0.339D+00 0.694D+00
 Gap=     0.266 Goal=   None    Shift=    0.000
 RMSDP=7.64D-08 MaxDP=1.83D-06 DE=-2.47D-09 OVMax= 1.17D-05

 Cycle  10  Pass 1  IDiag  1:
 RMSU=  3.95D-08    CP:  9.99D-01  1.11D+00  5.41D-01  9.06D-01  8.13D-01
                    CP:  1.00D+00  9.20D-01  1.06D+00  9.05D-01
 E= -362.774161924300     Delta-E=       -0.000000000409 Rises=F Damp=F
 DIIS: error= 1.71D-07 at cycle  10 NSaved=  10.
 NSaved=10 IEnMin=10 EnMin= -362.774161924300     IErMin=10 ErrMin= 1.71D-07
 ErrMax= 1.71D-07  0.00D+00 EMaxC= 1.00D-01 BMatC= 1.36D-11 BMatP= 3.62D-10
 IDIUse=1 WtCom= 1.00D+00 WtEn= 0.00D+00
 Coeff-Com: -0.303D-05 0.171D-03 0.575D-04-0.983D-03-0.285D-02-0.112D-01
[...]

 ----------------------------------------------------------------------

 Dipole orientation:
     6          1.01133207         -1.21004769          0.92657301
     8          0.96028705         -1.23723998         -1.39109595
     7          2.85027290         -0.14603902          2.28269002
     1          2.70200517         -0.23161224          4.17791498
     6         -1.09892561         -2.43358427          2.41710188
     6          4.98243520          1.09172065          1.12193857
     1          4.36991575          2.67788827         -0.04879738
     1          6.22771559          1.79518717          2.59901844
     1          6.03637691         -0.21981905         -0.07389516
     8         -0.70607038         -2.21187671          5.02455464
     1         -2.87530864         -1.52646986          1.83732455
     1         -1.20034004         -4.42363456          1.83111977
     6         -2.64939536         -3.33760089          6.45493097
     1         -2.18524385         -3.07046382          8.44284806
     1         -4.48078650         -2.45073643          6.05848705
     1         -2.79325816         -5.36690083          6.05627128

 Electric dipole moment (dipole orientation):
 (Debye = 10**-18 statcoulomb cm , SI units = C m)
                  (au)            (Debye)         (10**-30 SI)
   Tot        0.187039D+01      0.475406D+01      0.158578D+02
   x          0.000000D+00      0.000000D+00      0.000000D+00
   y          0.000000D+00      0.000000D+00      0.000000D+00
   z          0.187039D+01      0.475406D+01      0.158578D+02

 Dipole polarizability, Alpha (dipole orientation).
 (esu units = cm**3 , SI units = C**2 m**2 J**-1)
 Alpha(0;0):
               (au)            (10**-24 esu)      (10**-40 SI)
   iso        0.798548D+02      0.118333D+02      0.131663D+02
   aniso      0.241716D+02      0.358187D+01      0.398536D+01
   xx         0.832112D+02      0.123306D+02      0.137197D+02
   yx         0.111743D+02      0.165586D+01      0.184239D+01
   yy         0.704530D+02      0.104401D+02      0.116161D+02
   zx        -0.114524D+01     -0.169708D+00     -0.188825D+00
   zy        -0.689871D+00     -0.102228D+00     -0.113744D+00
   zz         0.859003D+02      0.127291D+02      0.141630D+02

 ----------------------------------------------------------------------
 1\1\GINC-RIPPER-24-13\Freq\RPBE1PBE\def2TZVP\C4H9N1O2\HILLEL\29-Aug-20
 24\0\\#P Geom=AllCheck Guess=TCheck SCRF=Check GenChk RPBE1PBE/def2TZV
 P Freq\\pfp-ome_ester methylacetamide_prod\\0,1\C,0.5768803791,0.73797
 43269,0.2438259271\O,0.1994734166,-0.0679930968,1.0882875482\N,1.77150
 75757,0.6935123374,-0.3476756384\H,1.9779812148,1.4058918664,-1.028791
 4689\C,-0.333960754,1.8674064447,-0.1840971327\C,2.7440426245,-0.32614
 46543,-0.041359637\H,2.3536375941,-1.3206706598,-0.2691929354\H,3.6363
 883922,-0.1520251774,-0.6390058063\H,3.0157302413,-0.3017810432,1.0163
 639453\O,0.2709979206,2.6797145016,-1.1510636016\H,-1.2618804742,1.415
 7150766,-0.562426024\H,-0.5926171411,2.4405657048,0.7173556946\C,-0.55
 90057149,3.7398284882,-1.5664942791\H,-0.0090003869,4.3111066997,-2.31
 35337219\H,-1.4881486685,3.3641401283,-2.0126191073\H,-0.8130942892,4.
 397042537,-0.7256715526\\Version=ES64L-G16RevB.01\State=1-A\HF=-362.78
 78506\RMSD=2.685e-09\RMSF=3.251e-05\ZeroPoint=0.1355143\Thermal=0.1443
 889\Dipole=0.5338727,1.249921,-1.2849262\DipoleDeriv=1.7583533,-0.1404
 423,-0.6610182,0.0880123,1.0520878,-0.6614737,-0.8437846,-0.5413595,1.
 1630603,-0.961682,-0.0031608,0.2260829,-0.3061885,-1.0655851,0.5853966
 ,0.4688914,0.4257542,-1.1244413,-1.3533678,0.1055413,0.3853257,0.14745
 15,-0.6051149,0.0378079,0.3478865,0.0605454,-0.6912111,0.2523228,0.005
 1687,0.0399671,0.0306595,0.3312837,-0.0116764,0.0200685,0.0021129,0.32
 4246,0.2419196,0.4762867,-0.2599917,0.233213,0.5080241,-0.1489991,-0.0
 652966,-0.2758663,0.7290432,0.4605406,-0.1887648,0.0623643,-0.2328448,
 0.4577927,-0.0071668,0.1006091,-0.0308089,0.2652082,-0.0098601,-0.0788
 19,-0.0377692,0.054264,-0.1380965,-0.0494996,-0.0455221,-0.040369,0.07
 72792,-0.0605616,0.0245257,0.0733642,-0.0249473,0.062482,0.0573497,0.1
 124882,0.0317198,0.0360214,0.0127931,0.0509156,-0.0145556,0.068575,0.0
 355616,-0.0475024,-0.1270373,0.0218155,-0.1158574,-0.7879613,0.1824859
 ,0.0048329,0.2397914,-1.2306514,0.4600694,-0.0413601,0.4902078,-0.8703
 098,-0.0875204,-0.1130053,-0.0086012,-0.0493364,-0.0255501,0.0229666,-
 0.1276404,0.0135788,-0.0043242,0.0618555,-0.0264936,0.0493284,0.070791
 ,-0.0590026,-0.0957832,0.0395529,-0.002351,-0.1200872,0.5701502,-0.350
 7968,0.2196909,-0.2583465,0.8103097,-0.1506508,0.1458697,-0.1027093,0.
 4589688,0.0075197,-0.0510461,0.0900289,-0.0021308,-0.0179964,0.096492,
 0.0508111,0.1222115,-0.0237236,-0.1385124,0.0204255,-0.1418193,-0.1171
 475,-0.0407429,-0.0466717,-0.0886355,-0.0075012,0.0174314,0.034011,0.0
 871791,-0.0272302,0.058184,-0.0748018,-0.0406586,0.0530991,-0.1669806,
 -0.121304\Polar=85.0053747,-6.9873787,80.2235923,-5.468758,-9.3521024,
 74.3355311\Quadrupole=4.2728366,-0.6216554,-3.6511812,-5.2034465,1.569
 2313,2.6774213\PG=C01 [X(C4H9N1O2)]\NImag=0\\0.64935407,-0.02519092,0.
 60872749,-0.20113847,-0.29229070,0.56793060,-0.14079149,-0.09306979,0.
 10640041,0.15275380,-0.08464959,-0.33576286,0.24931327,0.12366334,0.35
 417943,0.09965834,0.25373568,-0.33613721,-0.15978367,-0.31910279,0.377
 03059,-0.32240680,0.05448016,0.09495825,-0.03214784,-0.03824519,0.0589
 6315,0.64736614,0.04193588,-0.11615715,0.02436042,-0.04297710,0.006275
 26,0.03500396,-0.10810887,0.55075977,0.10519282,0.01781051,-0.12795198
 ,0.06275782,0.03244618,-0.03717959,-0.21648156,-0.32831805,0.44837093,
 0.00113503,-0.02864094,0.01864577,-0.00667583,0.00253309,0.00601446,-0
 .07736566,-0.04218951,0.07343171,0.08107265,-0.00960677,0.00097429,-0.
 00151520,0.00604004,0.00582863,-0.00089768,-0.04345409,-0.23834830,0.2
 1255993,0.05134955,0.24574201,0.00329090,0.00846120,-0.01572587,0.0031
 8585,0.00094646,0.00621402,0.07448255,0.21190420,-0.21168329,-0.078411
 87,-0.21612292,0.22528211,-0.13857042,0.04551892,-0.00895912,0.0173181
 0,-0.00572855,0.00307891,-0.02617232,0.02988916,-0.00376656,-0.0029437
 0,0.00040454,-0.00006193,0.54848047,0.06735355,-0.13647507,0.00508749,
 0.00709685,-0.02055971,0.02433094,0.00954924,0.00199963,0.00325987,-0.
 00163000,0.00060742,-0.00159887,0.00046871,0.52015869,-0.02644362,0.01
 651248,-0.08547908,-0.00721577,0.03107052,-0.00670648,0.01253609,-0.00
 741946,0.01170722,0.00155478,-0.00266787,-0.00113969,0.00201260,0.0264
 5864,0.53135827,-0.03868974,0.02506753,0.00069762,0.00632442,0.0030319
 3,-0.00863002,-0.15515131,0.07948515,-0.01259320,0.00560704,-0.0059531
 2,-0.00123422,-0.00070016,-0.00010319,0.00466372,0.56051013,0.01608143
 ,0.00150838,-0.00892733,-0.00728479,-0.00397722,0.00267436,0.07277363,
 -0.16506874,0.04752893,0.01440953,-0.01124010,-0.00323162,-0.00070780,
 0.00283191,0.00450814,0.04108298,0.53687961,0.00776319,-0.01369625,0.0
 0787967,-0.00036450,-0.00264223,-0.00311066,-0.00710657,0.04405006,-0.
 08960085,-0.01764364,0.00749968,-0.00259291,0.00511633,0.00419483,0.00
 192290,-0.03138849,-0.00041887,0.58020997,0.00330738,0.00272048,-0.002
 02848,-0.00003466,-0.00162692,0.00114716,0.00595389,0.02903907,0.00493
 047,-0.00118126,0.00193710,0.00090417,-0.00053321,-0.00084609,-0.00112
 702,-0.08845549,-0.09640738,-0.02319267,0.09179605,-0.00566378,-0.0013
 3483,0.00488904,0.00099622,0.00208420,-0.00278679,0.00492149,-0.027133
 88,0.00075099,0.00108138,-0.00197949,-0.00275737,0.00021240,0.00030318
 ,0.00031904,-0.09150213,-0.25758137,-0.05260614,0.09283783,0.28915087,
 0.00070976,-0.00114424,0.00075575,-0.00100528,0.00060747,-0.00003785,0
 .00352995,0.01101268,0.00219941,-0.00080666,0.00093500,0.00023498,0.00
 002907,-0.00000724,-0.00018055,-0.02302048,-0.05446365,-0.06069342,0.0
 2743798,0.05392315,0.05981142,0.00044562,0.00375502,-0.00328248,0.0001
 6291,-0.00044486,0.00043627,-0.02365576,-0.00268789,0.01350899,0.00101
 437,-0.00029711,0.00019546,-0.00068445,-0.00039524,0.00090510,-0.23056
 051,-0.03606446,0.12309146,-0.00804195,-0.00159493,0.00605125,0.253212
 83,0.00110062,-0.00481675,0.00333246,-0.00100853,0.00158785,-0.0004851
 2,0.02873777,0.00037187,-0.01651811,-0.00013907,0.00143968,-0.00033654
 ,0.00093266,0.00050549,-0.00059056,-0.04551448,-0.05712031,0.03143317,
 -0.02191640,-0.00246782,0.01689326,0.03595008,0.06108032,-0.00107070,0
 .00191806,-0.00097284,0.00091728,-0.00080833,0.00049346,-0.01147582,-0
 .00024564,0.00439131,0.00004835,-0.00025016,0.00110565,-0.00017238,0.0
 0012989,0.00040665,0.13056886,0.02654297,-0.13537305,-0.00755790,-0.00
 104957,0.00445599,-0.13626857,-0.03202188,0.13957256,0.00393836,0.0024
 2667,-0.00484361,0.00000292,-0.00254779,0.00186660,-0.01226461,0.00713
 028,-0.02251507,-0.00236873,-0.00046357,-0.00105573,0.00043903,0.00067
 895,0.00090109,-0.06038302,-0.00355159,-0.05565149,-0.00246325,-0.0017
 8200,-0.01275188,0.00832347,0.00177256,0.02498822,0.06513424,-0.003499
 84,-0.00005128,0.00258851,0.00117950,0.00091105,-0.00132765,0.01242873
 ,-0.00564086,0.02824043,0.00298822,-0.00018607,0.00112545,-0.00041562,
 -0.00058614,-0.00056258,-0.00444571,-0.04740082,-0.01732285,-0.0059854
 6,-0.00062195,-0.02787387,0.00130332,-0.00026594,0.00581773,-0.0039690
 0,0.05425956,0.00384263,0.00116560,-0.00119290,-0.00105765,-0.00139326
 ,0.00109441,-0.00618499,0.00822966,-0.00105325,-0.00139134,-0.00124671
 ,-0.00041161,-0.00020796,-0.00028000,-0.00025356,-0.05909218,-0.013295
 14,-0.29917315,-0.00044811,-0.00079987,-0.00647866,-0.00434438,-0.0018
 8084,-0.01405104,0.06909706,0.00928833,0.32157216,0.01370760,0.0058232
 5,-0.01226583,-0.00184088,0.00818896,-0.00461355,-0.00340886,0.0044115
 8,-0.00140753,0.00027869,0.00101804,-0.00098614,-0.12930561,-0.0184927
 5,0.04885963,0.00184586,-0.00010440,-0.00083393,-0.00025508,0.00040015
 ,-0.00016090,0.00001359,-0.00013096,0.00007542,-0.00025111,0.00034366,
 -0.00018384,0.30723300,-0.02031269,-0.01414345,0.02128393,0.00577632,-
 0.01174295,0.00790616,0.00441406,-0.00373712,0.00118707,-0.00095577,-0
 .00075544,0.00107666,-0.04645013,-0.12457814,0.07258997,-0.00190923,0.
 00101401,0.00028092,0.00017467,-0.00040679,0.00017310,0.00018598,-0.00
 004461,-0.00009816,0.00023440,-0.00041690,0.00023991,-0.07314723,0.369
 73554,0.00867082,0.00762065,-0.01146231,-0.00267859,0.00664297,-0.0020
 2724,-0.00141819,0.00119489,0.00041607,0.00060215,0.00003028,-0.000385
 87,0.07123890,0.05799751,-0.14793747,0.00061801,-0.00067277,0.00032243
 ,-0.00005886,0.00016008,-0.00009517,-0.00017955,0.00007008,-0.00000424
 ,-0.00002058,0.00008259,-0.00009023,-0.05297653,-0.18275211,0.26790947
 ,-0.02029984,-0.00868149,-0.00905218,0.00285783,0.00088664,0.00191441,
 -0.00014509,0.00257983,-0.00084050,0.00031728,-0.00052201,-0.00027423,
 -0.21853922,-0.08052387,-0.08281000,0.00005482,0.00030438,0.00088922,-
 0.00024378,0.00010644,-0.00000361,-0.00012891,0.00018399,0.00001079,0.
 00008645,-0.00006385,-0.00006910,-0.01531810,-0.01360448,0.00591012,0.
 24377895,0.02132030,0.01059470,0.00994773,-0.00107849,-0.00029934,-0.0
 0135023,0.00120063,-0.00292363,0.00022135,0.00043147,0.00001344,0.0006
 1151,-0.07816761,-0.08469215,-0.03698898,-0.00008202,-0.00048567,-0.00
 126612,0.00023561,-0.00017106,0.00000718,0.00016339,-0.00019999,-0.000
 03381,-0.00010741,0.00011421,0.00001098,-0.02194845,-0.01558422,0.0056
 9134,0.09522421,0.09695554,-0.00356724,-0.00551874,-0.00187685,0.00007
 104,0.00137353,0.00009160,-0.00071734,0.00075250,-0.00018050,-0.000132
 82,0.00026295,-0.00027491,-0.08565786,-0.03824045,-0.08602812,0.000049
 26,-0.00001579,0.00026027,-0.00008713,0.00007224,-0.00000647,-0.000057
 20,0.00007914,0.00000801,-0.00001990,-0.00000985,0.00001126,0.02747589
 ,0.01958066,0.00498214,0.08164092,0.03427079,0.09024058,-0.00686722,0.
 01518304,0.01893187,0.00072385,-0.00268350,-0.00144331,-0.00102702,0.0
 0150997,-0.00211641,0.00048125,0.00003797,0.00038718,-0.05603573,0.029
 66524,0.04054711,-0.00073575,-0.00075299,-0.00042970,0.00015876,-0.000
 03283,0.00001382,-0.00018438,0.00010600,-0.00007793,-0.00020856,0.0001
 3572,0.00003190,-0.00518682,0.00349433,0.02033953,0.00576942,-0.015233
 48,-0.02109223,0.06302553,0.00348272,-0.01170243,-0.02069132,0.0002631
 6,0.00133377,0.00233279,0.00163045,-0.00186670,0.00168040,-0.00022828,
 -0.00050898,-0.00009496,0.03146559,-0.12921459,-0.11440687,0.00062152,
 0.00080817,0.00031709,-0.00008701,0.00002787,-0.00003188,0.00022107,-0
 .00012561,0.00009542,0.00024555,-0.00017077,-0.00000300,-0.00733902,0.
 00923899,0.02610215,0.00305413,-0.00586702,-0.00977602,-0.03120716,0.1
 3368313,-0.00121700,0.00436154,0.00698090,-0.00038986,0.00012501,0.000
 60939,-0.00123220,0.00048979,-0.00036655,-0.00029979,0.00061267,0.0000
 8502,0.04008428,-0.11100290,-0.20413999,-0.00038944,-0.00040779,-0.000
 24006,0.00004318,-0.00006211,0.00002499,-0.00008726,0.00003264,-0.0000
 1977,-0.00007297,0.00005477,-0.00003493,0.01412517,0.00217224,-0.02994
 547,0.00200590,-0.00937468,-0.00914122,-0.05354512,0.11492828,0.234380
 01,-0.00605070,0.00114762,0.00193999,0.00185202,-0.00395788,0.00247331
 ,0.00078724,-0.00042791,0.00008486,-0.00031004,0.00015824,-0.00047008,
 0.00974054,-0.01136514,0.00112848,0.00003434,0.00046585,-0.00022300,0.
 00003633,-0.00007869,0.00000978,0.00014154,-0.00009527,0.00000148,0.00
 008395,-0.00009074,0.00006216,-0.14439940,0.09231071,-0.02974829,0.001
 15187,-0.00379197,0.00380068,-0.00021801,-0.00228715,0.00246574,0.5452
 8858,-0.00087486,-0.00261245,0.00209280,0.00001178,0.00179799,-0.00103
 567,-0.00095493,0.00218475,-0.00102294,0.00199626,-0.00222040,-0.00004
 108,0.01101602,-0.03520789,0.01805154,0.00063707,-0.00034726,0.0001996
 4,-0.00015679,0.00025943,-0.00007016,-0.00015249,0.00007504,0.00002064
 ,-0.00013842,0.00014888,-0.00009963,0.06176871,-0.16000717,0.04791085,
 0.00292372,0.00270268,-0.00167551,0.00086748,0.00505443,-0.00362951,0.
 05878774,0.52173208,0.00356468,0.00102547,-0.00327154,-0.00070901,0.00
 104290,0.00005196,0.00050530,-0.00130181,0.00106073,-0.00194902,0.0009
 3277,-0.00067990,-0.01679202,0.02976166,-0.02055288,-0.00036214,0.0002
 9208,0.00027902,0.00005003,-0.00008933,0.00001897,0.00004825,-0.000010
 38,-0.00001723,0.00012386,-0.00014915,0.00008033,-0.00529197,0.0319628
 1,-0.08270398,0.00007725,-0.00212939,0.00278113,-0.00171701,0.00197076
 ,0.00179735,-0.03960939,-0.00032550,0.58068661,0.00124739,0.00029350,-
 0.00060266,-0.00036944,0.00057311,-0.00032030,0.00003267,-0.00015786,0
 .00008417,-0.00007755,0.00006509,0.00000173,-0.00191909,0.00296913,-0.
 00115004,-0.00001118,-0.00004176,0.00001821,0.00000560,-0.00000036,-0.
 00000035,-0.00000698,0.00000347,0.00000134,-0.00000024,0.00000133,-0.0
 0000072,0.01154010,0.01683982,-0.01938386,0.00023409,0.00039829,-0.000
 02790,-0.00007324,-0.00004056,-0.00017913,-0.12893356,-0.07940926,0.10
 545343,0.13200906,-0.00180658,0.00081070,0.00073253,0.00044543,-0.0012
 2802,0.00066779,0.00031835,-0.00014703,-0.00008563,-0.00009664,0.00004
 442,0.00003474,0.00496555,-0.00226202,-0.00042074,-0.00007005,0.000100
 42,-0.00007639,0.00002383,-0.00003609,0.00001085,0.00003590,-0.0000196
 8,-0.00000248,0.00001894,-0.00002522,0.00001927,-0.01021140,-0.0220743
 9,0.02332226,-0.00006739,0.00005554,-0.00016035,-0.00011131,0.00003546
 ,0.00042869,-0.06962411,-0.11466787,0.08891677,0.07347822,0.13274990,0
 .00107952,-0.00036778,0.00027231,-0.00021773,0.00060051,-0.00047066,-0
 .00029660,0.00016298,-0.00002214,0.00013100,-0.00005018,-0.00000428,-0
 .00274557,0.00060708,0.00138759,0.00004069,-0.00009097,0.00001108,-0.0
 0001074,0.00002582,-0.00000722,-0.00002475,0.00001469,0.00000207,-0.00
 002386,0.00002641,-0.00001154,0.00231579,0.00915099,-0.00820994,0.0002
 4469,0.00016863,-0.00006064,-0.00002209,-0.00018174,0.00026366,0.09760
 573,0.09404927,-0.17608428,-0.10450360,-0.10878710,0.18735634,0.000493
 06,-0.00035276,0.00042504,-0.00010233,0.00061561,-0.00046064,-0.000170
 06,0.00029651,-0.00011542,0.00052238,-0.00048451,-0.00005972,0.0001845
 4,-0.00189950,0.00367651,0.00017960,-0.00011662,-0.00001353,-0.0000272
 0,0.00005950,-0.00002041,-0.00003013,0.00000963,0.00000541,-0.00003715
 ,0.00004675,-0.00002688,-0.02470284,0.00836264,-0.01382815,0.00043015,
 0.00118044,-0.00120873,0.00002691,0.00009574,-0.00047569,-0.22010342,-
 0.08192538,-0.08181198,-0.01136236,-0.00670551,-0.00677626,0.24808260,
 0.00030641,0.00000907,-0.00029363,-0.00008488,-0.00004803,0.00003450,0
 .00016222,-0.00031341,0.00009792,-0.00029253,0.00030934,0.00014845,0.0
 0434161,0.00456595,-0.00129656,-0.00015988,-0.00002177,-0.00000722,0.0
 0003228,-0.00004680,0.00001545,0.00000551,0.00000342,-0.00000553,0.000
 01371,-0.00001577,0.00001287,0.03188744,0.00259647,0.01804467,-0.00140
 837,0.00014981,-0.00117072,-0.00039190,-0.00068047,0.00006940,-0.08687
 781,-0.08941481,-0.04045568,-0.01159596,-0.00469449,-0.00758847,0.0794
 8102,0.09295394,0.00012510,0.00012336,0.00011413,-0.00000920,0.0001212
 4,-0.00008798,0.00000225,0.00005882,-0.00005103,0.00019837,-0.00018344
 ,-0.00004238,-0.00231824,-0.00221654,0.00136956,0.00009315,-0.00002458
 ,-0.00001417,-0.00001220,0.00002296,-0.00000774,-0.00000367,-0.0000028
 0,0.00000261,-0.00001161,0.00001356,-0.00000885,-0.01220183,0.00582309
 ,-0.00386470,0.00048407,0.00035506,-0.00018869,0.00009087,-0.00020256,
 -0.00033286,-0.08139367,-0.03921832,-0.09125397,0.01825361,0.00769608,
 0.01034158,0.09740629,0.03868641,0.09325490,0.00004769,-0.00048030,0.0
 0017388,-0.00003338,0.00039161,-0.00030113,-0.00022462,0.00027171,-0.0
 0015460,0.00049407,-0.00022939,0.00010608,-0.00075877,-0.00252589,0.00
 196133,0.00013095,-0.00008599,-0.00003089,-0.00002213,0.00003932,-0.00
 001204,-0.00002126,0.00000793,0.00000617,-0.00003174,0.00004299,-0.000
 02661,-0.00995014,0.02458660,0.01291307,-0.00000592,0.00025509,-0.0004
 6943,0.00035102,0.00010926,-0.00083582,-0.05910128,0.02560335,0.038419
 73,-0.00231525,0.00940678,0.01320376,0.00661624,-0.01541887,-0.0207032
 8,0.06482452,0.00002410,0.00043163,0.00009000,0.00003094,-0.00038006,0
 .00029974,0.00014635,-0.00025445,0.00016113,-0.00061675,0.00027955,-0.
 00012529,0.00225456,0.00260345,-0.00515671,-0.00018635,0.00010075,0.00
 006068,0.00002518,-0.00004547,0.00001290,0.00001672,-0.00000294,-0.000
 00915,0.00003873,-0.00005198,0.00003182,0.01753243,-0.02909383,-0.0114
 4543,-0.00039188,-0.00036281,0.00017563,-0.00058660,-0.00004526,0.0012
 0196,0.02572650,-0.12947742,-0.11144397,-0.00337618,0.01135838,0.01225
 986,0.00133643,-0.00535244,-0.01105233,-0.04197419,0.15029291,-0.00046
 072,0.00028315,0.00013721,0.00009884,-0.00034346,0.00017222,-0.0000642
 6,0.00006500,-0.00005650,0.00000853,0.00010088,0.00001894,-0.00087845,
 0.00151808,0.00426562,-0.00002114,0.00000203,-0.00008707,0.00001010,-0
 .00001215,0.00000558,0.00001108,-0.00000921,-0.00000016,-0.00001014,0.
 00000817,0.00000156,-0.00192985,0.00942275,0.01309652,-0.00012773,-0.0
 0014137,-0.00061759,0.00010154,-0.00203853,0.00007954,0.04187222,-0.11
 520642,-0.21219232,0.00235607,-0.01229627,-0.01476394,0.00328415,-0.00
 629183,-0.00923040,-0.04425024,0.12493917,0.21917080\\0.00009460,0.000
 03167,-0.00004474,0.00000945,-0.00000977,-0.00000450,-0.00012342,0.000
 03770,0.00003019,-0.00000654,-0.00002033,0.00001611,0.00003608,-0.0000
 2009,0.00001883,0.00001195,-0.00000156,0.00000081,0.00000117,-0.000011
 19,0.00000358,-0.00000523,-0.00000027,0.00000069,-0.00000163,-0.000007
 85,0.00000026,-0.00004050,0.00009153,-0.00004192,-0.00001561,-0.000021
 71,-0.00000626,0.00000237,-0.00001181,-0.00000367,0.00003806,-0.000047
 27,0.00002637,0.00000703,-0.00000054,-0.00000980,-0.00001035,-0.000015
 87,-0.00000103,0.00000257,0.00000734,0.00001507\\\@


 IMAGINATION WILL OFTEN CARRY US TO WORLDS THAT NEVER WERE.
 BUT WITHOUT IT, WE GO NOWHERE. -- CARL SAGAN (COSMOS)
 Job cpu time:       0 days  0 hours 49 minutes 39.2 seconds.
 Elapsed time:       0 days  0 hours  2 minutes  4.4 seconds.
 File lengths (MBytes):  RWF=    139 Int=      0 D2E=      0 Chk=     11 Scr=      1
 Normal termination of Gaussian 16 at Thu Aug 29 03:56:53 2024.
