 Entering Gaussian System, Link 0=g16
 Input=input.com
 Output=input.log
 Initial command:
 /share/apps/g16.b01_avx2/g16/l1.exe "/scratch/Gau-980070.inp" -scrdir="/scratch/"
 Entering Link 1 = /share/apps/g16.b01_avx2/g16/l1.exe PID=    980072.
  
 Copyright (c) 1988-2017, Gaussian, Inc.  All Rights Reserved.
  
 This is part of the Gaussian(R) 16 program.  It is based on
 the Gaussian(R) 09 system (copyright 2009, Gaussian, Inc.),
 the Gaussian(R) 03 system (copyright 2003, Gaussian, Inc.),
 the Gaussian(R) 98 system (copyright 1998, Gaussian, Inc.),
 the Gaussian(R) 94 system (copyright 1995, Gaussian, Inc.),
 the Gaussian 92(TM) system (copyright 1992, Gaussian, Inc.),
 the Gaussian 90(TM) system (copyright 1990, Gaussian, Inc.),
 the Gaussian 88(TM) system (copyright 1988, Gaussian, Inc.),
 the Gaussian 86(TM) system (copyright 1986, Carnegie Mellon
 University), and the Gaussian 82(TM) system (copyright 1983,
 Carnegie Mellon University). Gaussian is a federally registered
 trademark of Gaussian, Inc.
  
 This software contains proprietary and confidential information,
 including trade secrets, belonging to Gaussian, Inc.
  
 This software is provided under written license and may be
 used, copied, transmitted, or stored only in accord with that
 written license.
  
 The following legend is applicable only to US Government
 contracts under FAR:
  
                    RESTRICTED RIGHTS LEGEND
  
 Use, reproduction and disclosure by the US Government is
 subject to restrictions as set forth in subparagraphs (a)
 and (c) of the Commercial Computer Software - Restricted
 Rights clause in FAR 52.227-19.
  
 Gaussian, Inc.
 340 Quinnipiac St., Bldg. 40, Wallingford CT 06492
  
  
 ---------------------------------------------------------------
 Warning -- This program may not be used in any manner that
 competes with the business of Gaussian, Inc. or will provide
 assistance to any competitor of Gaussian, Inc.  The licensee
 of this program is prohibited from giving any competitor of
 Gaussian, Inc. access to this program.  By using this program,
 the user acknowledges that Gaussian, Inc. is engaged in the
 business of creating and licensing software in the field of
 computational chemistry and represents and warrants to the
 licensee that it is not a competitor of Gaussian, Inc. and that
 it will not use this program in any manner prohibited above.
 ---------------------------------------------------------------
  

 Cite this work as:
 Gaussian 16, Revision B.01,
 M. J. Frisch, G. W. Trucks, H. B. Schlegel, G. E. Scuseria, 
 M. A. Robb, J. R. Cheeseman, G. Scalmani, V. Barone, 
 G. A. Petersson, H. Nakatsuji, X. Li, M. Caricato, A. V. Marenich, 
 J. Bloino, B. G. Janesko, R. Gomperts, B. Mennucci, H. P. Hratchian, 
 J. V. Ortiz, A. F. Izmaylov, J. L. Sonnenberg, D. Williams-Young, 
 F. Ding, F. Lipparini, F. Egidi, J. Goings, B. Peng, A. Petrone, 
 T. Henderson, D. Ranasinghe, V. G. Zakrzewski, J. Gao, N. Rega, 
 G. Zheng, W. Liang, M. Hada, M. Ehara, K. Toyota, R. Fukuda, 
 J. Hasegawa, M. Ishida, T. Nakajima, Y. Honda, O. Kitao, H. Nakai, 
 T. Vreven, K. Throssell, J. A. Montgomery, Jr., J. E. Peralta, 
 F. Ogliaro, M. J. Bearpark, J. J. Heyd, E. N. Brothers, K. N. Kudin, 
 V. N. Staroverov, T. A. Keith, R. Kobayashi, J. Normand, 
 K. Raghavachari, A. P. Rendell, J. C. Burant, S. S. Iyengar, 
 J. Tomasi, M. Cossi, J. M. Millam, M. Klene, C. Adamo, R. Cammi, 
 J. W. Ochterski, R. L. Martin, K. Morokuma, O. Farkas, 
 J. B. Foresman, and D. J. Fox, Gaussian, Inc., Wallingford CT, 2016.
 
 ******************************************
 Gaussian 16:  ES64L-G16RevB.01 20-Dec-2017
                 9-Jul-2024 
 ******************************************
 %nproc=16
 Will use up to   16 processors via shared memory.
 %mem=60GB
 ----------------------------------------------------------------------
 #P PBE1PBE/def2TZVP opt=(calcfc, ts, noeigentest) freq EmpiricalDisper
 sion=GD3 Int=(grid=99590) scrf=(iefpcm, solvent=water)
 ----------------------------------------------------------------------
 1/5=1,10=4,11=1,18=20,26=6,38=1/1,3;
 2/9=110,12=2,17=6,18=5,40=1/2;
 3/5=44,7=101,11=2,25=1,30=1,70=2201,71=2,72=1,74=-13,75=99590,124=31,140=1/1,2,3;
 4//1;
 5/5=2,38=5,53=1/2;
 8/6=4,10=90,11=11/1;
 11/6=1,8=1,9=11,15=111,16=1/1,2,10;
 10/6=1,13=1/2;
 6/7=2,8=2,9=2,10=2,28=1/1;
 7/10=1,18=20,25=1/1,2,3,16;
 1/5=1,10=4,11=1,18=20,26=6/3(2);
 2/9=110/2;
 99//99;
 2/9=110/2;
 3/5=44,7=101,11=2,25=1,30=1,70=2205,71=1,72=1,74=-13,75=99590,124=31/1,2,3;
 4/5=5,16=3,69=1/1;
 5/5=2,38=5,53=1/2;
 7//1,2,3,16;
 1/5=1,11=1,18=20,26=6/3(-5);
 2/9=110/2;
 6/7=2,8=2,9=2,10=2,19=2,28=1/1;
 99/9=1/99;
 Leave Link    1 at Tue Jul  9 02:15:27 2024, MaxMem=  8053063680 cpu:               0.4 elap:               0.0
 (Enter /share/apps/g16.b01_avx2/g16/l101.exe)
 -------
 PFP-CF3
 -------
 Symbolic Z-matrix:
 Charge =  0 Multiplicity = 1
 H                    -2.26547   1.66102   0.18676 
 O                    -1.83016  -0.79759   1.2179 
 C                    -2.25301  -0.61245   0.08198 
 N                    -3.04585   1.02927   0.03731 
 H                    -3.41578   1.22423  -0.88781 
 C                    -4.0533    1.18842   1.08091 
 H                    -4.93743   0.6073    0.82419 
 H                    -3.63383   0.81154   2.01359 
 H                    -4.33837   2.23372   1.20526 
 C                    -3.2978   -1.49063  -0.55823 
 H                    -2.87125  -2.49087  -0.65147 
 H                    -4.17446  -1.54755   0.08618 
 H                    -3.58633  -1.13874  -1.54829 
 O                    -1.26019  -0.31859  -0.98042 
 C                     0.00533  -0.14789  -0.55909 
 C                     0.5648    1.12034  -0.45975 
 C                     0.81947  -1.23392  -0.25366 
 C                     1.88415   1.30802  -0.08721 
 C                     2.13854  -1.06296   0.12636 
 C                     2.67427   0.21144   0.20939 
 F                    -0.1849    2.18964  -0.72617 
 F                     0.33151  -2.46503  -0.34105 
 F                     2.39182   2.53209  -0.00778 
 F                     2.89645  -2.11604   0.40854 
 C                     4.14356   0.4066    0.62736 
 F                     4.28275   1.60276   1.23755 
 F                     4.93215   0.36552  -0.4676 
 F                     4.50378  -0.57739   1.47853 
 
 Add virtual bond connecting atoms N4         and C3         Dist= 3.45D+00.
 ITRead=  0  0  0  0  0  0  0  0  0  0  0  0  0  0  0  0  0  0  0  0
 ITRead=  0  0  0  0  0  0  0  0
 MicOpt= -1 -1 -1 -1 -1 -1 -1 -1 -1 -1 -1 -1 -1 -1 -1 -1 -1 -1 -1 -1
 MicOpt= -1 -1 -1 -1 -1 -1 -1 -1
 NAtoms=     28 NQM=       28 NQMF=       0 NMMI=      0 NMMIF=      0
                NMic=       0 NMicF=      0.
                    Isotopes and Nuclear Properties:
 (Nuclear quadrupole moments (NQMom) in fm**2, nuclear magnetic moments (NMagM)
  in nuclear magnetons)

  Atom         1           2           3           4           5           6           7           8           9          10
 IAtWgt=           1          16          12          14           1          12           1           1           1          12
 AtmWgt=   1.0078250  15.9949146  12.0000000  14.0030740   1.0078250  12.0000000   1.0078250   1.0078250   1.0078250  12.0000000
 NucSpn=           1           0           0           2           1           0           1           1           1           0
 AtZEff=  -0.0000000  -0.0000000  -0.0000000  -0.0000000  -0.0000000  -0.0000000  -0.0000000  -0.0000000  -0.0000000  -0.0000000
 NQMom=    0.0000000   0.0000000   0.0000000   2.0440000   0.0000000   0.0000000   0.0000000   0.0000000   0.0000000   0.0000000
 NMagM=    2.7928460   0.0000000   0.0000000   0.4037610   2.7928460   0.0000000   2.7928460   2.7928460   2.7928460   0.0000000
 AtZNuc=   1.0000000   8.0000000   6.0000000   7.0000000   1.0000000   6.0000000   1.0000000   1.0000000   1.0000000   6.0000000

  Atom        11          12          13          14          15          16          17          18          19          20
 IAtWgt=           1           1           1          16          12          12          12          12          12          12
 AtmWgt=   1.0078250   1.0078250   1.0078250  15.9949146  12.0000000  12.0000000  12.0000000  12.0000000  12.0000000  12.0000000
 NucSpn=           1           1           1           0           0           0           0           0           0           0
 AtZEff=  -0.0000000  -0.0000000  -0.0000000  -0.0000000  -0.0000000  -0.0000000  -0.0000000  -0.0000000  -0.0000000  -0.0000000
 NQMom=    0.0000000   0.0000000   0.0000000   0.0000000   0.0000000   0.0000000   0.0000000   0.0000000   0.0000000   0.0000000
 NMagM=    2.7928460   2.7928460   2.7928460   0.0000000   0.0000000   0.0000000   0.0000000   0.0000000   0.0000000   0.0000000
 AtZNuc=   1.0000000   1.0000000   1.0000000   8.0000000   6.0000000   6.0000000   6.0000000   6.0000000   6.0000000   6.0000000

  Atom        21          22          23          24          25          26          27          28
 IAtWgt=          19          19          19          19          12          19          19          19
 AtmWgt=  18.9984032  18.9984032  18.9984032  18.9984032  12.0000000  18.9984032  18.9984032  18.9984032
 NucSpn=           1           1           1           1           0           1           1           1
 AtZEff=  -0.0000000  -0.0000000  -0.0000000  -0.0000000  -0.0000000  -0.0000000  -0.0000000  -0.0000000
 NQMom=    0.0000000   0.0000000   0.0000000   0.0000000   0.0000000   0.0000000   0.0000000   0.0000000
 NMagM=    2.6288670   2.6288670   2.6288670   2.6288670   0.0000000   2.6288670   2.6288670   2.6288670
 AtZNuc=   9.0000000   9.0000000   9.0000000   9.0000000   6.0000000   9.0000000   9.0000000   9.0000000
 Leave Link  101 at Tue Jul  9 02:15:27 2024, MaxMem=  8053063680 cpu:               5.2 elap:               0.3
 (Enter /share/apps/g16.b01_avx2/g16/l103.exe)

 GradGradGradGradGradGradGradGradGradGradGradGradGradGradGradGradGradGrad
 Berny optimization.
 Initialization pass.
                           ----------------------------
                           !    Initial Parameters    !
                           ! (Angstroms and Degrees)  !
 --------------------------                            --------------------------
 ! Name  Definition              Value          Derivative Info.                !
 --------------------------------------------------------------------------------
 ! R1    R(1,4)                  1.0151         calculate D2E/DX2 analytically  !
 ! R2    R(2,3)                  1.2261         calculate D2E/DX2 analytically  !
 ! R3    R(3,4)                  1.8237         calculate D2E/DX2 analytically  !
 ! R4    R(3,10)                 1.5075         calculate D2E/DX2 analytically  !
 ! R5    R(3,14)                 1.4835         calculate D2E/DX2 analytically  !
 ! R6    R(4,5)                  1.0152         calculate D2E/DX2 analytically  !
 ! R7    R(4,6)                  1.4592         calculate D2E/DX2 analytically  !
 ! R8    R(6,7)                  1.0887         calculate D2E/DX2 analytically  !
 ! R9    R(6,8)                  1.0899         calculate D2E/DX2 analytically  !
 ! R10   R(6,9)                  1.0906         calculate D2E/DX2 analytically  !
 ! R11   R(10,11)                1.0914         calculate D2E/DX2 analytically  !
 ! R12   R(10,12)                1.0895         calculate D2E/DX2 analytically  !
 ! R13   R(10,13)                1.0896         calculate D2E/DX2 analytically  !
 ! R14   R(14,15)                1.3447         calculate D2E/DX2 analytically  !
 ! R15   R(15,16)                1.3897         calculate D2E/DX2 analytically  !
 ! R16   R(15,17)                1.3913         calculate D2E/DX2 analytically  !
 ! R17   R(16,18)                1.3837         calculate D2E/DX2 analytically  !
 ! R18   R(16,21)                1.3328         calculate D2E/DX2 analytically  !
 ! R19   R(17,19)                1.3833         calculate D2E/DX2 analytically  !
 ! R20   R(17,22)                1.3272         calculate D2E/DX2 analytically  !
 ! R21   R(18,20)                1.3837         calculate D2E/DX2 analytically  !
 ! R22   R(18,23)                1.3276         calculate D2E/DX2 analytically  !
 ! R23   R(19,20)                1.3849         calculate D2E/DX2 analytically  !
 ! R24   R(19,24)                1.3278         calculate D2E/DX2 analytically  !
 ! R25   R(20,25)                1.54           calculate D2E/DX2 analytically  !
 ! R26   R(25,26)                1.35           calculate D2E/DX2 analytically  !
 ! R27   R(25,27)                1.35           calculate D2E/DX2 analytically  !
 ! R28   R(25,28)                1.35           calculate D2E/DX2 analytically  !
 ! A1    A(2,3,4)              107.972          calculate D2E/DX2 analytically  !
 ! A2    A(2,3,10)             122.9887         calculate D2E/DX2 analytically  !
 ! A3    A(2,3,14)             117.5536         calculate D2E/DX2 analytically  !
 ! A4    A(4,3,10)             102.2803         calculate D2E/DX2 analytically  !
 ! A5    A(4,3,14)              95.4565         calculate D2E/DX2 analytically  !
 ! A6    A(10,3,14)            105.9669         calculate D2E/DX2 analytically  !
 ! A7    A(1,4,3)              102.8516         calculate D2E/DX2 analytically  !
 ! A8    A(1,4,5)              107.1433         calculate D2E/DX2 analytically  !
 ! A9    A(1,4,6)              110.9515         calculate D2E/DX2 analytically  !
 ! A10   A(3,4,5)              110.7084         calculate D2E/DX2 analytically  !
 ! A11   A(3,4,6)              112.3839         calculate D2E/DX2 analytically  !
 ! A12   A(5,4,6)              112.2829         calculate D2E/DX2 analytically  !
 ! A13   A(4,6,7)              109.5002         calculate D2E/DX2 analytically  !
 ! A14   A(4,6,8)              107.974          calculate D2E/DX2 analytically  !
 ! A15   A(4,6,9)              111.5029         calculate D2E/DX2 analytically  !
 ! A16   A(7,6,8)              109.2541         calculate D2E/DX2 analytically  !
 ! A17   A(7,6,9)              109.0387         calculate D2E/DX2 analytically  !
 ! A18   A(8,6,9)              109.5396         calculate D2E/DX2 analytically  !
 ! A19   A(3,10,11)            107.4151         calculate D2E/DX2 analytically  !
 ! A20   A(3,10,12)            109.6886         calculate D2E/DX2 analytically  !
 ! A21   A(3,10,13)            112.4121         calculate D2E/DX2 analytically  !
 ! A22   A(11,10,12)           108.4891         calculate D2E/DX2 analytically  !
 ! A23   A(11,10,13)           108.774          calculate D2E/DX2 analytically  !
 ! A24   A(12,10,13)           109.9516         calculate D2E/DX2 analytically  !
 ! A25   A(3,14,15)            115.5057         calculate D2E/DX2 analytically  !
 ! A26   A(14,15,16)           121.1396         calculate D2E/DX2 analytically  !
 ! A27   A(14,15,17)           121.3606         calculate D2E/DX2 analytically  !
 ! A28   A(16,15,17)           117.4583         calculate D2E/DX2 analytically  !
 ! A29   A(15,16,18)           121.7947         calculate D2E/DX2 analytically  !
 ! A30   A(15,16,21)           119.4339         calculate D2E/DX2 analytically  !
 ! A31   A(18,16,21)           118.7712         calculate D2E/DX2 analytically  !
 ! A32   A(15,17,19)           121.4558         calculate D2E/DX2 analytically  !
 ! A33   A(15,17,22)           119.6368         calculate D2E/DX2 analytically  !
 ! A34   A(19,17,22)           118.903          calculate D2E/DX2 analytically  !
 ! A35   A(16,18,20)           119.647          calculate D2E/DX2 analytically  !
 ! A36   A(16,18,23)           120.3842         calculate D2E/DX2 analytically  !
 ! A37   A(20,18,23)           119.9681         calculate D2E/DX2 analytically  !
 ! A38   A(17,19,20)           119.9377         calculate D2E/DX2 analytically  !
 ! A39   A(17,19,24)           120.3083         calculate D2E/DX2 analytically  !
 ! A40   A(20,19,24)           119.7536         calculate D2E/DX2 analytically  !
 ! A41   A(18,20,19)           119.7029         calculate D2E/DX2 analytically  !
 ! A42   A(18,20,25)           120.1675         calculate D2E/DX2 analytically  !
 ! A43   A(19,20,25)           120.1295         calculate D2E/DX2 analytically  !
 ! A44   A(20,25,26)           109.4712         calculate D2E/DX2 analytically  !
 ! A45   A(20,25,27)           109.4712         calculate D2E/DX2 analytically  !
 ! A46   A(20,25,28)           109.4712         calculate D2E/DX2 analytically  !
 ! A47   A(26,25,27)           109.4712         calculate D2E/DX2 analytically  !
 ! A48   A(26,25,28)           109.4712         calculate D2E/DX2 analytically  !
 ! A49   A(27,25,28)           109.4713         calculate D2E/DX2 analytically  !
 ! D1    D(2,3,4,1)             66.0697         calculate D2E/DX2 analytically  !
 ! D2    D(2,3,4,5)           -179.759          calculate D2E/DX2 analytically  !
 ! D3    D(2,3,4,6)            -53.311          calculate D2E/DX2 analytically  !
 ! D4    D(10,3,4,1)          -162.9031         calculate D2E/DX2 analytically  !
 ! D5    D(10,3,4,5)           -48.7319         calculate D2E/DX2 analytically  !
 ! D6    D(10,3,4,6)            77.7161         calculate D2E/DX2 analytically  !
 ! D7    D(14,3,4,1)           -55.2293         calculate D2E/DX2 analytically  !
 ! D8    D(14,3,4,5)            58.9419         calculate D2E/DX2 analytically  !
 ! D9    D(14,3,4,6)          -174.61           calculate D2E/DX2 analytically  !
 ! D10   D(2,3,10,11)          -63.5101         calculate D2E/DX2 analytically  !
 ! D11   D(2,3,10,12)           54.2153         calculate D2E/DX2 analytically  !
 ! D12   D(2,3,10,13)          176.8717         calculate D2E/DX2 analytically  !
 ! D13   D(4,3,10,11)          175.307          calculate D2E/DX2 analytically  !
 ! D14   D(4,3,10,12)          -66.9676         calculate D2E/DX2 analytically  !
 ! D15   D(4,3,10,13)           55.6887         calculate D2E/DX2 analytically  !
 ! D16   D(14,3,10,11)          75.8967         calculate D2E/DX2 analytically  !
 ! D17   D(14,3,10,12)        -166.3779         calculate D2E/DX2 analytically  !
 ! D18   D(14,3,10,13)         -43.7216         calculate D2E/DX2 analytically  !
 ! D19   D(2,3,14,15)           -6.6158         calculate D2E/DX2 analytically  !
 ! D20   D(4,3,14,15)          106.928          calculate D2E/DX2 analytically  !
 ! D21   D(10,3,14,15)        -148.6201         calculate D2E/DX2 analytically  !
 ! D22   D(1,4,6,7)            172.0482         calculate D2E/DX2 analytically  !
 ! D23   D(1,4,6,8)            -69.0928         calculate D2E/DX2 analytically  !
 ! D24   D(1,4,6,9)             51.2873         calculate D2E/DX2 analytically  !
 ! D25   D(3,4,6,7)            -73.4153         calculate D2E/DX2 analytically  !
 ! D26   D(3,4,6,8)             45.4438         calculate D2E/DX2 analytically  !
 ! D27   D(3,4,6,9)            165.8238         calculate D2E/DX2 analytically  !
 ! D28   D(5,4,6,7)             52.18           calculate D2E/DX2 analytically  !
 ! D29   D(5,4,6,8)            171.039          calculate D2E/DX2 analytically  !
 ! D30   D(5,4,6,9)            -68.5809         calculate D2E/DX2 analytically  !
 ! D31   D(3,14,15,16)        -103.1946         calculate D2E/DX2 analytically  !
 ! D32   D(3,14,15,17)          79.2073         calculate D2E/DX2 analytically  !
 ! D33   D(14,15,16,18)       -176.9642         calculate D2E/DX2 analytically  !
 ! D34   D(14,15,16,21)          3.1909         calculate D2E/DX2 analytically  !
 ! D35   D(17,15,16,18)          0.7245         calculate D2E/DX2 analytically  !
 ! D36   D(17,15,16,21)       -179.1204         calculate D2E/DX2 analytically  !
 ! D37   D(14,15,17,19)        177.2692         calculate D2E/DX2 analytically  !
 ! D38   D(14,15,17,22)         -1.9558         calculate D2E/DX2 analytically  !
 ! D39   D(16,15,17,19)         -0.414          calculate D2E/DX2 analytically  !
 ! D40   D(16,15,17,22)       -179.6391         calculate D2E/DX2 analytically  !
 ! D41   D(15,16,18,20)         -0.6337         calculate D2E/DX2 analytically  !
 ! D42   D(15,16,18,23)        179.6591         calculate D2E/DX2 analytically  !
 ! D43   D(21,16,18,20)        179.2122         calculate D2E/DX2 analytically  !
 ! D44   D(21,16,18,23)         -0.495          calculate D2E/DX2 analytically  !
 ! D45   D(15,17,19,20)          0.0179         calculate D2E/DX2 analytically  !
 ! D46   D(15,17,19,24)       -179.7769         calculate D2E/DX2 analytically  !
 ! D47   D(22,17,19,20)        179.2485         calculate D2E/DX2 analytically  !
 ! D48   D(22,17,19,24)         -0.5463         calculate D2E/DX2 analytically  !
 ! D49   D(16,18,20,19)          0.2103         calculate D2E/DX2 analytically  !
 ! D50   D(16,18,20,25)       -179.9074         calculate D2E/DX2 analytically  !
 ! D51   D(23,18,20,19)        179.9187         calculate D2E/DX2 analytically  !
 ! D52   D(23,18,20,25)         -0.199          calculate D2E/DX2 analytically  !
 ! D53   D(17,19,20,18)          0.09           calculate D2E/DX2 analytically  !
 ! D54   D(17,19,20,25)       -179.7924         calculate D2E/DX2 analytically  !
 ! D55   D(24,19,20,18)        179.8858         calculate D2E/DX2 analytically  !
 ! D56   D(24,19,20,25)          0.0035         calculate D2E/DX2 analytically  !
 ! D57   D(18,20,25,26)         28.8542         calculate D2E/DX2 analytically  !
 ! D58   D(18,20,25,27)        -91.1458         calculate D2E/DX2 analytically  !
 ! D59   D(18,20,25,28)        148.8542         calculate D2E/DX2 analytically  !
 ! D60   D(19,20,25,26)       -151.2641         calculate D2E/DX2 analytically  !
 ! D61   D(19,20,25,27)         88.7359         calculate D2E/DX2 analytically  !
 ! D62   D(19,20,25,28)        -31.2641         calculate D2E/DX2 analytically  !
 --------------------------------------------------------------------------------
 Trust Radius=3.00D-01 FncErr=5.00D-06 GrdErr=5.00D-06 EigMax=2.50D+02 EigMin=1.00D-04
 Number of steps in this run=    149 maximum allowed number of steps=    168.
 Search for a saddle point of order  1.
 GradGradGradGradGradGradGradGradGradGradGradGradGradGradGradGradGradGrad

 Leave Link  103 at Tue Jul  9 02:15:27 2024, MaxMem=  8053063680 cpu:               0.1 elap:               0.0
 (Enter /share/apps/g16.b01_avx2/g16/l202.exe)
                          Input orientation:                          
 ---------------------------------------------------------------------
 Center     Atomic      Atomic             Coordinates (Angstroms)
 Number     Number       Type             X           Y           Z
 ---------------------------------------------------------------------
      1          1           0       -2.265472    1.661023    0.186757
      2          8           0       -1.830164   -0.797594    1.217902
      3          6           0       -2.253007   -0.612451    0.081977
      4          7           0       -3.045855    1.029265    0.037305
      5          1           0       -3.415781    1.224229   -0.887805
      6          6           0       -4.053295    1.188417    1.080905
      7          1           0       -4.937434    0.607301    0.824188
      8          1           0       -3.633830    0.811535    2.013590
      9          1           0       -4.338372    2.233722    1.205260
     10          6           0       -3.297800   -1.490627   -0.558231
     11          1           0       -2.871247   -2.490873   -0.651472
     12          1           0       -4.174457   -1.547553    0.086178
     13          1           0       -3.586332   -1.138744   -1.548289
     14          8           0       -1.260189   -0.318591   -0.980422
     15          6           0        0.005332   -0.147886   -0.559094
     16          6           0        0.564795    1.120335   -0.459751
     17          6           0        0.819473   -1.233919   -0.253655
     18          6           0        1.884147    1.308020   -0.087208
     19          6           0        2.138542   -1.062957    0.126356
     20          6           0        2.674266    0.211439    0.209393
     21          9           0       -0.184902    2.189640   -0.726172
     22          9           0        0.331507   -2.465029   -0.341046
     23          9           0        2.391821    2.532093   -0.007775
     24          9           0        2.896454   -2.116043    0.408539
     25          6           0        4.143557    0.406601    0.627360
     26          9           0        4.282752    1.602761    1.237546
     27          9           0        4.932150    0.365520   -0.467598
     28          9           0        4.503783   -0.577393    1.478531
 ---------------------------------------------------------------------
                    Distance matrix (angstroms):
                    1          2          3          4          5
     1  H    0.000000
     2  O    2.701398   0.000000
     3  C    2.275921   1.226132   0.000000
     4  N    1.015112   2.491812   1.823687   0.000000
     5  H    1.633611   3.322040   2.380318   1.015226   0.000000
     6  C    2.054061   2.984178   2.735328   1.459235   2.069668
     7  H    2.942113   3.432764   3.040530   2.091724   2.372119
     8  H    2.435437   2.544725   2.768671   2.073360   2.938699
     9  H    2.379548   3.934481   3.702865   2.117885   2.500234
    10  C    3.399060   2.406013   1.507532   2.601537   2.737331
    11  H    4.278765   2.728664   2.109179   3.591138   3.762227
    12  H    3.734876   2.709049   2.136914   2.813560   3.034305
    13  H    3.548768   3.294286   2.170831   2.739797   2.459465
    14  O    2.508341   2.320979   1.483487   2.457862   2.652442
    15  C    2.997498   2.636073   2.393092   3.324322   3.700644
    16  C    2.953088   3.496970   3.352018   3.645840   4.004873
    17  C    4.253415   3.062097   3.152619   4.488588   4.937815
    18  C    4.173608   4.464642   4.564305   4.939446   5.360710
    19  C    5.178712   4.124623   4.414819   5.591359   6.091818
    20  C    5.148089   4.724947   4.997304   5.780851   6.270427
    21  F    2.332734   3.925542   3.575175   3.180317   3.375903
    22  F    4.903793   3.143800   3.207913   4.874404   5.286940
    23  F    4.742044   5.514912   5.609870   5.641706   6.017741
    24  F    6.400070   4.973358   5.374419   6.733633   7.258253
    25  C    6.545484   6.122431   6.500149   7.240409   7.752924
    26  F    6.632253   6.567330   6.997045   7.448352   7.995487
    27  F    7.342498   7.065595   7.272203   8.021474   8.402494
    28  F    7.245826   6.343130   6.899696   7.852102   8.459603
                    6          7          8          9         10
     6  C    0.000000
     7  H    1.088715   0.000000
     8  H    1.089905   1.776449   0.000000
     9  H    1.090594   1.774637   1.781121   0.000000
    10  C    3.230297   3.000131   3.468015   4.250114   0.000000
    11  H    4.235037   4.005669   4.311611   5.284099   1.091391
    12  H    2.913708   2.402122   3.093944   3.946803   1.089510
    13  H    3.542089   3.240802   4.061136   4.418272   1.089627
    14  O    3.784387   4.199527   3.984403   4.557051   2.388257
    15  C    4.576872   5.187939   4.558804   5.258590   3.565618
    16  C    4.868779   5.673291   4.882748   5.296503   4.663310
    17  C    5.602913   6.139529   5.399647   6.384069   4.136496
    18  C    6.052438   6.917775   5.925194   6.422394   5.908203
    19  C    6.657229   7.303846   6.355757   7.347281   5.495942
    20  C    6.853765   7.646742   6.588423   7.366035   6.257144
    21  F    4.385480   5.243470   4.615254   4.580795   4.823142
    22  F    5.881845   6.209567   5.657215   6.802727   3.764107
    23  F    6.673096   7.623317   6.584429   6.845143   6.989783
    24  F    7.724671   8.304166   7.334270   8.479265   6.300363
    25  C    8.246534   9.085341   7.910332   8.695715   7.770386
    26  F    8.347808   9.282975   7.993782   8.644243   8.382042
    27  F    9.154957   9.956699   8.929235   9.603708   8.437154
    28  F    8.746415   9.537727   8.272615   9.282281   8.114622
                   11         12         13         14         15
    11  H    0.000000
    12  H    1.769841   0.000000
    13  H    1.773099   1.784516   0.000000
    14  O    2.724431   3.337805   2.531021   0.000000
    15  C    3.711176   4.454894   3.854913   1.344694   0.000000
    16  C    4.988383   5.465910   4.849764   2.381632   1.389695
    17  C    3.919133   5.015296   4.593066   2.385584   1.391253
    18  C    6.112590   6.700078   6.168270   3.651102   2.423280
    19  C    5.267062   6.331698   5.965263   3.651083   2.420285
    20  C    6.228667   7.072075   6.641350   4.144457   2.800517
    21  F    5.397150   5.526579   4.829466   2.740822   2.351198
    22  F    3.217867   4.618224   4.308820   2.747634   2.350125
    23  F    7.303726   7.730999   7.182377   4.733880   3.630643
    24  F    5.876265   7.101048   6.841842   4.736848   3.628849
    25  C    7.696638   8.561597   8.177574   5.684306   4.340511
    26  F    8.456117   9.098049   8.786308   6.271775   4.958730
    27  F    8.311787   9.321846   8.717525   6.251085   4.954341
    28  F    7.911345   8.842607   8.656022   6.271905   4.957061
                   16         17         18         19         20
    16  C    0.000000
    17  C    2.376941   0.000000
    18  C    1.383728   2.760922   0.000000
    19  C    2.754445   1.383322   2.394130   0.000000
    20  C    2.392428   2.396608   1.383745   1.384912   0.000000
    21  F    1.332831   3.599000   2.338053   4.087124   3.600473
    22  F    3.594906   1.327170   4.087912   2.334448   3.599303
    23  F    2.352736   4.088469   1.327553   3.606456   2.347844
    24  F    4.082242   2.351700   3.604821   1.327798   2.346529
    25  C    3.807724   3.810122   2.535369   2.535881   1.540000
    26  F    4.115429   4.718552   2.755930   3.597003   2.362224
    27  F    4.432110   4.417928   3.212993   3.193364   2.362223
    28  F    4.706893   4.123788   3.587313   2.767402   2.362223
                   21         22         23         24         25
    21  F    0.000000
    22  F    4.699036   0.000000
    23  F    2.696826   5.415459   0.000000
    24  F    5.414908   2.694925   4.693947   0.000000
    25  C    4.873072   4.869886   2.826604   2.822566   0.000000
    26  F    4.915338   5.886527   2.447469   4.054451   1.350000
    27  F    5.438612   5.403142   3.370274   3.327135   1.350000
    28  F    5.873751   4.927668   4.042078   2.468974   1.350000
                   26         27         28
    26  F    0.000000
    27  F    2.204541   0.000000
    28  F    2.204541   2.204541   0.000000
 Stoichiometry    C10H8F7NO2
 Framework group  C1[X(C10H8F7NO2)]
 Deg. of freedom    78
 Full point group                 C1      NOp   1
 Largest Abelian subgroup         C1      NOp   1
 Largest concise Abelian subgroup C1      NOp   1
                         Standard orientation:                         
 ---------------------------------------------------------------------
 Center     Atomic      Atomic             Coordinates (Angstroms)
 Number     Number       Type             X           Y           Z
 ---------------------------------------------------------------------
      1          1           0        2.911120   -1.729280    0.212488
      2          8           0        2.531107    0.731312    1.260640
      3          6           0        3.012065    0.543501    0.148523
      4          7           0        3.727948   -1.133575    0.120951
      5          1           0        4.143048   -1.331885   -0.784063
      6          6           0        4.662426   -1.357008    1.219220
      7          1           0        5.586750   -0.815226    1.025837
      8          1           0        4.206046   -0.974746    2.132174
      9          1           0        4.889981   -2.416603    1.341178
     10          6           0        4.133549    1.380124   -0.412716
     11          1           0        3.760943    2.401045   -0.512804
     12          1           0        4.971723    1.384912    0.283325
     13          1           0        4.463992    1.030007   -1.390219
     14          8           0        2.071954    0.314086   -0.975885
     15          6           0        0.776826    0.198010   -0.633289
     16          6           0        0.153296   -1.043204   -0.590280
     17          6           0       -0.002090    1.317134   -0.356815
     18          6           0       -1.193382   -1.172899   -0.299868
     19          6           0       -1.348146    1.204013   -0.058628
     20          6           0       -1.947320   -0.044261   -0.030603
     21          9           0        0.866406   -2.143120   -0.831316
     22          9           0        0.547687    2.524541   -0.392797
     23          9           0       -1.762001   -2.372208   -0.272866
     24          9           0       -2.071155    2.287884    0.197359
     25          6           0       -3.446575   -0.174908    0.296145
     26          9           0       -3.678275   -1.372212    0.875177
     27          9           0       -4.165327   -0.079134   -0.842592
     28          9           0       -3.810404    0.812095    1.142287
 ---------------------------------------------------------------------
 Rotational constants (GHZ):           0.6442599           0.2018516           0.1696758
 Leave Link  202 at Tue Jul  9 02:15:27 2024, MaxMem=  8053063680 cpu:               0.0 elap:               0.0
 (Enter /share/apps/g16.b01_avx2/g16/l301.exe)
 Standard basis: def2TZVP (5D, 7F)
 Ernie: Thresh=  0.10000D-02 Tol=  0.10000D-05 Strict=F.
 There are   768 symmetry adapted cartesian basis functions of A   symmetry.
 There are   668 symmetry adapted basis functions of A   symmetry.
   668 basis functions,  1084 primitive gaussians,   768 cartesian basis functions
    77 alpha electrons       77 beta electrons
       nuclear repulsion energy      1779.7913627881 Hartrees.
 IExCor= 1009 DFT=T Ex+Corr=PBE1PBE ExCW=0 ScaHFX=  0.250000
 ScaDFX=  0.750000  0.750000  1.000000  1.000000 ScalE2=  1.000000  1.000000
 IRadAn=  99590 IRanWt=     -1 IRanGd=            0 ICorTp=0 IEmpDi=131
 NAtoms=   28 NActive=   28 NUniq=   28 SFac= 1.00D+00 NAtFMM=   60 NAOKFM=F Big=F
 Integral buffers will be    131072 words long.
 Raffenetti 2 integral format.
 Two-electron integral symmetry is turned on.
 R6Disp:  Grimme-D3 Dispersion energy=       -0.0182879430 Hartrees.
 Nuclear repulsion after empirical dispersion term =     1779.7730748452 Hartrees.
 Force inversion solution in PCM.
 ------------------------------------------------------------------------------
 Polarizable Continuum Model (PCM)
 =================================
 Model                : PCM.
 Atomic radii         : UFF (Universal Force Field).
 Polarization charges : Total charges.
 Charge compensation  : None.
 Solution method      : Matrix inversion.
 Cavity type          : Scaled VdW (van der Waals Surface) (Alpha=1.100).
 Cavity algorithm     : GePol (No added spheres)
                        Default sphere list used, NSphG=   28.
                        Lebedev-Laikov grids with approx.  5.0 points / Ang**2.
                        Smoothing algorithm: York/Karplus (Gamma=1.0000).
                        Polarization charges: spherical gaussians, with
                                              point-specific exponents (IZeta= 3).
                        Self-potential: point-specific (ISelfS= 7).
                        Self-field    : sphere-specific E.n sum rule (ISelfD= 2).
 1st derivatives      : Analytical E(r).r(x)/FMM algorithm (CHGder, D1EAlg=3).
                        Cavity 1st derivative terms included.
 2nd derivatives      : Analytical E(r).r(xy)/FMM algorithm (CHGder, D2EAlg=3).
                        Cavity 2nd derivative terms included.
 Solvent              : Water, Eps=  78.355300 Eps(inf)=   1.777849
 ------------------------------------------------------------------------------
 GePol: Number of generator spheres                  =      28
 GePol: Total number of spheres                      =      28
 GePol: Number of exposed spheres                    =      28 (100.00%)
 GePol: Number of points                             =    2409
 GePol: Average weight of points                     =       0.13
 GePol: Minimum weight of points                     =   0.38D-11
 GePol: Maximum weight of points                     =    0.20577
 GePol: Number of points with low weight             =     137
 GePol: Fraction of low-weight points (<1% of avg)   =       5.69%
 GePol: Cavity surface area                          =    303.928 Ang**2
 GePol: Cavity volume                                =    323.586 Ang**3
 Leave Link  301 at Tue Jul  9 02:15:27 2024, MaxMem=  8053063680 cpu:               0.4 elap:               0.0
 (Enter /share/apps/g16.b01_avx2/g16/l302.exe)
 NPDir=0 NMtPBC=     1 NCelOv=     1 NCel=       1 NClECP=     1 NCelD=      1
         NCelK=      1 NCelE2=     1 NClLst=     1 CellRange=     0.0.
 One-electron integrals computed using PRISM.
 One-electron integral symmetry used in STVInt
   1 Symmetry operations used in ECPInt.
 ECPInt:  NShTT=   31878 NPrTT=  101040 LenC2=   26936 LenP2D=   60106.
 LDataN:  DoStor=T MaxTD1= 6 Len=  172
 NBasis=   668 RedAO= T EigKep=  1.22D-05  NBF=   668
 NBsUse=   668 1.00D-06 EigRej= -1.00D+00 NBFU=   668
 Precomputing XC quadrature grid using
 IXCGrd= 4 IRadAn=       99590 IRanWt=          -1 IRanGd=           0 AccXCQ= 0.00D+00.
 Generated NRdTot=       0 NPtTot=           0 NUsed=           0 NTot=          32
 NSgBfM=   753   753   753   753   753 MxSgAt=    28 MxSgA2=    28.
 Leave Link  302 at Tue Jul  9 02:15:28 2024, MaxMem=  8053063680 cpu:               5.3 elap:               0.3
 (Enter /share/apps/g16.b01_avx2/g16/l303.exe)
 DipDrv:  MaxL=1.
 Leave Link  303 at Tue Jul  9 02:15:28 2024, MaxMem=  8053063680 cpu:               0.8 elap:               0.1
 (Enter /share/apps/g16.b01_avx2/g16/l401.exe)
 ExpMin= 9.52D-02 ExpMax= 3.55D+04 ExpMxC= 1.21D+03 IAcc=4 IRadAn=    199590 AccDes= 0.00D+00
 Harris functional with IExCor= 1009 and IRadAn=  199590 diagonalized for initial guess.
 HarFok:  IExCor= 1009 AccDes= 0.00D+00 IRadAn=    199590 IDoV= 1 UseB2=F ITyADJ=14
 ICtDFT=  3500011 ScaDFX=  1.000000  1.000000  1.000000  1.000000
 FoFCou: FMM=F IPFlag=           0 FMFlag=      100000 FMFlg1=           0
         NFxFlg=           0 DoJE=T BraDBF=F KetDBF=T FulRan=T
         wScrn=  0.000000 ICntrl=       500 IOpCl=  0 I1Cent=   200000004 NGrid=           0
         NMat0=    1 NMatS0=      1 NMatT0=    0 NMatD0=    1 NMtDS0=    0 NMtDT0=    0
 Petite list used in FoFCou.
 Harris En= -1289.27883176893    
 JPrj=0 DoOrth=F DoCkMO=F.
 Leave Link  401 at Tue Jul  9 02:15:30 2024, MaxMem=  8053063680 cpu:              45.0 elap:               2.8
 (Enter /share/apps/g16.b01_avx2/g16/l502.exe)
 Integral symmetry usage will be decided dynamically.
 Closed shell SCF:
 Using DIIS extrapolation, IDIIS=  1040.
 NGot=  8053063680 LenX=  8051865182 LenY=  8051274590
 Requested convergence on RMS density matrix=1.00D-08 within 128 cycles.
 Requested convergence on MAX density matrix=1.00D-06.
 Requested convergence on             energy=1.00D-06.
 No special actions if energy rises.
 Fock matrices will be formed incrementally for  20 cycles.

 Cycle   1  Pass 1  IDiag  1:
 FoFJK:  IHMeth= 1 ICntrl=       0 DoSepK=F KAlg= 0 I1Cent=           0 FoldK=F
 IRaf= 780000000 NMat=       1 IRICut=       1 DoRegI=T DoRafI=F ISym2E= 0 IDoP0=0 IntGTp=1.
 FoFCou: FMM=F IPFlag=           0 FMFlag=      100000 FMFlg1=           0
         NFxFlg=           0 DoJE=F BraDBF=F KetDBF=F FulRan=T
         wScrn=  0.000000 ICntrl=         0 IOpCl=  0 I1Cent=           0 NGrid=           0
         NMat0=    1 NMatS0=      1 NMatT0=    0 NMatD0=    1 NMtDS0=    0 NMtDT0=    0
 Symmetry not used in FoFCou.
 Inv3:  Mode=1 IEnd=    17409843.
 Iteration    1 A*A^-1 deviation from unit magnitude is 3.11D-15 for    435.
 Iteration    1 A*A^-1 deviation from orthogonality  is 2.31D-15 for   1586   1395.
 Iteration    1 A^-1*A deviation from unit magnitude is 3.00D-15 for   2050.
 Iteration    1 A^-1*A deviation from orthogonality  is 2.59D-15 for   1586   1395.
 E= -1288.85482451360    
 DIIS: error= 1.52D-02 at cycle   1 NSaved=   1.
 NSaved= 1 IEnMin= 1 EnMin= -1288.85482451360     IErMin= 1 ErrMin= 1.52D-02
 ErrMax= 1.52D-02  0.00D+00 EMaxC= 1.00D-01 BMatC= 4.62D-01 BMatP= 4.62D-01
 IDIUse=3 WtCom= 8.48D-01 WtEn= 1.52D-01
 Coeff-Com:  0.100D+01
 Coeff-En:   0.100D+01
 Coeff:      0.100D+01
 Gap=     0.247 Goal=   None    Shift=    0.000
 GapD=    0.247 DampG=1.000 DampE=0.500 DampFc=0.5000 IDamp=-1.
 Damping current iteration by 5.00D-01
 RMSDP=2.69D-03 MaxDP=3.75D-01              OVMax= 2.47D-01

 Cycle   2  Pass 1  IDiag  1:
 RMSU=  1.34D-03    CP:  1.00D+00
 E= -1288.98002442640     Delta-E=       -0.125199912800 Rises=F Damp=T
 DIIS: error= 4.01D-03 at cycle   2 NSaved=   2.
 NSaved= 2 IEnMin= 2 EnMin= -1288.98002442640     IErMin= 2 ErrMin= 4.01D-03
 ErrMax= 4.01D-03  0.00D+00 EMaxC= 1.00D-01 BMatC= 4.19D-02 BMatP= 4.62D-01
 IDIUse=3 WtCom= 9.60D-01 WtEn= 4.01D-02
 Coeff-Com:  0.911D-01 0.909D+00
 Coeff-En:   0.194D+00 0.806D+00
 Coeff:      0.952D-01 0.905D+00
 Gap=     0.261 Goal=   None    Shift=    0.000
 RMSDP=9.68D-04 MaxDP=1.48D-01 DE=-1.25D-01 OVMax= 1.63D-01

 Cycle   3  Pass 1  IDiag  1:
 RMSU=  6.80D-04    CP:  9.85D-01  4.95D-01
 E= -1289.14701960973     Delta-E=       -0.166995183322 Rises=F Damp=F
 DIIS: error= 5.59D-03 at cycle   3 NSaved=   3.
 NSaved= 3 IEnMin= 3 EnMin= -1289.14701960973     IErMin= 2 ErrMin= 4.01D-03
 ErrMax= 5.59D-03  0.00D+00 EMaxC= 1.00D-01 BMatC= 3.56D-02 BMatP= 4.19D-02
 IDIUse=3 WtCom= 9.44D-01 WtEn= 5.59D-02
 Coeff-Com: -0.283D-01 0.479D+00 0.549D+00
 Coeff-En:   0.000D+00 0.000D+00 0.100D+01
 Coeff:     -0.267D-01 0.453D+00 0.574D+00
 Gap=     0.231 Goal=   None    Shift=    0.000
 RMSDP=3.38D-04 MaxDP=2.54D-02 DE=-1.67D-01 OVMax= 5.41D-02

 Cycle   4  Pass 1  IDiag  1:
 RMSU=  2.98D-04    CP:  9.83D-01  5.72D-01  8.20D-01
 E= -1289.16730083514     Delta-E=       -0.020281225412 Rises=F Damp=F
 DIIS: error= 2.31D-03 at cycle   4 NSaved=   4.
 NSaved= 4 IEnMin= 4 EnMin= -1289.16730083514     IErMin= 4 ErrMin= 2.31D-03
 ErrMax= 2.31D-03  0.00D+00 EMaxC= 1.00D-01 BMatC= 6.46D-03 BMatP= 3.56D-02
 IDIUse=3 WtCom= 9.77D-01 WtEn= 2.31D-02
 Coeff-Com: -0.312D-01 0.115D+00 0.330D+00 0.586D+00
 Coeff-En:   0.000D+00 0.000D+00 0.168D+00 0.832D+00
 Coeff:     -0.304D-01 0.113D+00 0.326D+00 0.591D+00
 Gap=     0.228 Goal=   None    Shift=    0.000
 RMSDP=1.19D-04 MaxDP=7.62D-03 DE=-2.03D-02 OVMax= 1.82D-02

 Cycle   5  Pass 1  IDiag  1:
 RMSU=  6.32D-05    CP:  9.82D-01  5.61D-01  9.12D-01  7.37D-01
 E= -1289.17192332500     Delta-E=       -0.004622489868 Rises=F Damp=F
 DIIS: error= 4.20D-04 at cycle   5 NSaved=   5.
 NSaved= 5 IEnMin= 5 EnMin= -1289.17192332500     IErMin= 5 ErrMin= 4.20D-04
 ErrMax= 4.20D-04  0.00D+00 EMaxC= 1.00D-01 BMatC= 4.09D-04 BMatP= 6.46D-03
 IDIUse=3 WtCom= 9.96D-01 WtEn= 4.20D-03
 Coeff-Com: -0.144D-01 0.348D-01 0.136D+00 0.316D+00 0.527D+00
 Coeff-En:   0.000D+00 0.000D+00 0.000D+00 0.000D+00 0.100D+01
 Coeff:     -0.144D-01 0.346D-01 0.136D+00 0.315D+00 0.529D+00
 Gap=     0.228 Goal=   None    Shift=    0.000
 RMSDP=3.21D-05 MaxDP=2.46D-03 DE=-4.62D-03 OVMax= 3.22D-03

 Cycle   6  Pass 1  IDiag  1:
 RMSU=  1.67D-05    CP:  9.83D-01  5.64D-01  8.98D-01  7.52D-01  6.07D-01
 E= -1289.17220054395     Delta-E=       -0.000277218944 Rises=F Damp=F
 DIIS: error= 1.22D-04 at cycle   6 NSaved=   6.
 NSaved= 6 IEnMin= 6 EnMin= -1289.17220054395     IErMin= 6 ErrMin= 1.22D-04
 ErrMax= 1.22D-04  0.00D+00 EMaxC= 1.00D-01 BMatC= 2.10D-05 BMatP= 4.09D-04
 IDIUse=3 WtCom= 9.99D-01 WtEn= 1.22D-03
 Coeff-Com: -0.470D-02 0.792D-02 0.379D-01 0.105D+00 0.251D+00 0.603D+00
 Coeff-En:   0.000D+00 0.000D+00 0.000D+00 0.000D+00 0.000D+00 0.100D+01
 Coeff:     -0.469D-02 0.791D-02 0.378D-01 0.105D+00 0.251D+00 0.604D+00
 Gap=     0.228 Goal=   None    Shift=    0.000
 RMSDP=7.88D-06 MaxDP=7.78D-04 DE=-2.77D-04 OVMax= 1.01D-03

 Cycle   7  Pass 1  IDiag  1:
 RMSU=  5.96D-06    CP:  9.83D-01  5.66D-01  8.98D-01  7.41D-01  6.25D-01
                    CP:  8.20D-01
 E= -1289.17221428403     Delta-E=       -0.000013740078 Rises=F Damp=F
 DIIS: error= 2.68D-05 at cycle   7 NSaved=   7.
 NSaved= 7 IEnMin= 7 EnMin= -1289.17221428403     IErMin= 7 ErrMin= 2.68D-05
 ErrMax= 2.68D-05  0.00D+00 EMaxC= 1.00D-01 BMatC= 1.47D-06 BMatP= 2.10D-05
 IDIUse=1 WtCom= 1.00D+00 WtEn= 0.00D+00
 Coeff-Com: -0.133D-02 0.164D-02 0.878D-02 0.287D-01 0.842D-01 0.276D+00
 Coeff-Com:  0.602D+00
 Coeff:     -0.133D-02 0.164D-02 0.878D-02 0.287D-01 0.842D-01 0.276D+00
 Coeff:      0.602D+00
 Gap=     0.228 Goal=   None    Shift=    0.000
 RMSDP=3.06D-06 MaxDP=3.31D-04 DE=-1.37D-05 OVMax= 4.39D-04

 Cycle   8  Pass 1  IDiag  1:
 RMSU=  1.71D-06    CP:  9.83D-01  5.65D-01  8.98D-01  7.46D-01  6.28D-01
                    CP:  8.64D-01  7.95D-01
 E= -1289.17221525047     Delta-E=       -0.000000966444 Rises=F Damp=F
 DIIS: error= 1.24D-05 at cycle   8 NSaved=   8.
 NSaved= 8 IEnMin= 8 EnMin= -1289.17221525047     IErMin= 8 ErrMin= 1.24D-05
 ErrMax= 1.24D-05  0.00D+00 EMaxC= 1.00D-01 BMatC= 2.29D-07 BMatP= 1.47D-06
 IDIUse=1 WtCom= 1.00D+00 WtEn= 0.00D+00
 Coeff-Com: -0.133D-03-0.583D-04-0.224D-03 0.161D-02 0.122D-01 0.629D-01
 Coeff-Com:  0.314D+00 0.610D+00
 Coeff:     -0.133D-03-0.583D-04-0.224D-03 0.161D-02 0.122D-01 0.629D-01
 Coeff:      0.314D+00 0.610D+00
 Gap=     0.228 Goal=   None    Shift=    0.000
 RMSDP=9.37D-07 MaxDP=6.34D-05 DE=-9.66D-07 OVMax= 1.79D-04

 Cycle   9  Pass 1  IDiag  1:
 RMSU=  5.15D-07    CP:  9.83D-01  5.65D-01  8.99D-01  7.45D-01  6.31D-01
                    CP:  8.65D-01  8.61D-01  6.88D-01
 E= -1289.17221543140     Delta-E=       -0.000000180925 Rises=F Damp=F
 DIIS: error= 4.47D-06 at cycle   9 NSaved=   9.
 NSaved= 9 IEnMin= 9 EnMin= -1289.17221543140     IErMin= 9 ErrMin= 4.47D-06
 ErrMax= 4.47D-06  0.00D+00 EMaxC= 1.00D-01 BMatC= 1.73D-08 BMatP= 2.29D-07
 IDIUse=1 WtCom= 1.00D+00 WtEn= 0.00D+00
 Coeff-Com:  0.565D-04-0.170D-03-0.920D-03-0.193D-02-0.245D-02 0.144D-02
 Coeff-Com:  0.816D-01 0.286D+00 0.636D+00
 Coeff:      0.565D-04-0.170D-03-0.920D-03-0.193D-02-0.245D-02 0.144D-02
 Coeff:      0.816D-01 0.286D+00 0.636D+00
 Gap=     0.228 Goal=   None    Shift=    0.000
 RMSDP=2.33D-07 MaxDP=1.42D-05 DE=-1.81D-07 OVMax= 4.14D-05

 Cycle  10  Pass 1  IDiag  1:
 RMSU=  1.18D-07    CP:  9.83D-01  5.65D-01  8.99D-01  7.45D-01  6.30D-01
                    CP:  8.70D-01  8.71D-01  7.54D-01  8.29D-01
 E= -1289.17221544617     Delta-E=       -0.000000014770 Rises=F Damp=F
 DIIS: error= 1.24D-06 at cycle  10 NSaved=  10.
 NSaved=10 IEnMin=10 EnMin= -1289.17221544617     IErMin=10 ErrMin= 1.24D-06
 ErrMax= 1.24D-06  0.00D+00 EMaxC= 1.00D-01 BMatC= 1.15D-09 BMatP= 1.73D-08
 IDIUse=1 WtCom= 1.00D+00 WtEn= 0.00D+00
 Coeff-Com:  0.267D-04-0.653D-04-0.390D-03-0.868D-03-0.147D-02-0.142D-02
 Coeff-Com:  0.256D-01 0.110D+00 0.303D+00 0.566D+00
 Coeff:      0.267D-04-0.653D-04-0.390D-03-0.868D-03-0.147D-02-0.142D-02
 Coeff:      0.256D-01 0.110D+00 0.303D+00 0.566D+00
 Gap=     0.228 Goal=   None    Shift=    0.000
 RMSDP=5.39D-08 MaxDP=3.02D-06 DE=-1.48D-08 OVMax= 8.97D-06

 Cycle  11  Pass 1  IDiag  1:
 RMSU=  3.81D-08    CP:  9.83D-01  5.65D-01  8.98D-01  7.45D-01  6.30D-01
                    CP:  8.70D-01  8.74D-01  7.60D-01  8.32D-01  7.56D-01
 E= -1289.17221544705     Delta-E=       -0.000000000884 Rises=F Damp=F
 DIIS: error= 3.12D-07 at cycle  11 NSaved=  11.
 NSaved=11 IEnMin=11 EnMin= -1289.17221544705     IErMin=11 ErrMin= 3.12D-07
 ErrMax= 3.12D-07  0.00D+00 EMaxC= 1.00D-01 BMatC= 8.58D-11 BMatP= 1.15D-09
 IDIUse=1 WtCom= 1.00D+00 WtEn= 0.00D+00
 Coeff-Com:  0.422D-05-0.679D-05-0.594D-04-0.134D-03-0.378D-03-0.883D-03
 Coeff-Com: -0.570D-03 0.653D-02 0.356D-01 0.221D+00 0.739D+00
 Coeff:      0.422D-05-0.679D-05-0.594D-04-0.134D-03-0.378D-03-0.883D-03
 Coeff:     -0.570D-03 0.653D-02 0.356D-01 0.221D+00 0.739D+00
 Gap=     0.228 Goal=   None    Shift=    0.000
 RMSDP=1.60D-08 MaxDP=6.87D-07 DE=-8.84D-10 OVMax= 3.07D-06

 Cycle  12  Pass 1  IDiag  1:
 RMSU=  1.10D-08    CP:  9.83D-01  5.65D-01  8.98D-01  7.45D-01  6.30D-01
                    CP:  8.70D-01  8.74D-01  7.64D-01  8.37D-01  8.05D-01
                    CP:  9.03D-01
 E= -1289.17221544709     Delta-E=       -0.000000000035 Rises=F Damp=F
 DIIS: error= 1.26D-07 at cycle  12 NSaved=  12.
 NSaved=12 IEnMin=12 EnMin= -1289.17221544709     IErMin=12 ErrMin= 1.26D-07
 ErrMax= 1.26D-07  0.00D+00 EMaxC= 1.00D-01 BMatC= 1.38D-11 BMatP= 8.58D-11
 IDIUse=1 WtCom= 1.00D+00 WtEn= 0.00D+00
 Coeff-Com:  0.155D-06 0.120D-05-0.482D-05-0.594D-05-0.910D-04-0.323D-03
 Coeff-Com: -0.213D-02-0.413D-02-0.276D-02 0.738D-01 0.384D+00 0.552D+00
 Coeff:      0.155D-06 0.120D-05-0.482D-05-0.594D-05-0.910D-04-0.323D-03
 Coeff:     -0.213D-02-0.413D-02-0.276D-02 0.738D-01 0.384D+00 0.552D+00
 Gap=     0.228 Goal=   None    Shift=    0.000
 RMSDP=6.67D-09 MaxDP=3.45D-07 DE=-3.52D-11 OVMax= 1.12D-06

 Error on total polarization charges =  0.00976
 SCF Done:  E(RPBE1PBE) =  -1289.17221545     A.U. after   12 cycles
            NFock= 12  Conv=0.67D-08     -V/T= 2.0038
 KE= 1.284276670786D+03 PE=-6.605824744033D+03 EE= 2.252602782955D+03
 Leave Link  502 at Tue Jul  9 02:17:18 2024, MaxMem=  8053063680 cpu:            1709.1 elap:             107.1
 (Enter /share/apps/g16.b01_avx2/g16/l801.exe)
 DoSCS=F DFT=T ScalE2(SS,OS)=  1.000000  1.000000
 Range of M.O.s used for correlation:     1   668
 NBasis=   668 NAE=    77 NBE=    77 NFC=     0 NFV=     0
 NROrb=    668 NOA=    77 NOB=    77 NVA=   591 NVB=   591

 **** Warning!!: The largest alpha MO coefficient is  0.40573286D+02

 Leave Link  801 at Tue Jul  9 02:17:18 2024, MaxMem=  8053063680 cpu:               0.3 elap:               0.0
 (Enter /share/apps/g16.b01_avx2/g16/l1101.exe)
 Using compressed storage, NAtomX=    28.
 Will process     29 centers per pass.
   1 Symmetry operations used in ECPInt.
 ECPInt:  NShTT=   31878 NPrTT=  101040 LenC2=   26936 LenP2D=   60106.
 LDataN:  DoStor=T MaxTD1= 7 Len=  274
 R6Disp: Adding Grimme-D3 dispersion energy 1st derivatives to the gradient.
 Leave Link 1101 at Tue Jul  9 02:17:19 2024, MaxMem=  8053063680 cpu:              17.2 elap:               1.1
 (Enter /share/apps/g16.b01_avx2/g16/l1102.exe)
 Symmetrizing basis deriv contribution to polar:
 IMax=3 JMax=2 DiffMx= 0.00D+00
 Leave Link 1102 at Tue Jul  9 02:17:19 2024, MaxMem=  8053063680 cpu:               0.7 elap:               0.1
 (Enter /share/apps/g16.b01_avx2/g16/l1110.exe)
 Forming Gx(P) for the SCF density, NAtomX=    28.
 Integral derivatives from FoFJK, PRISM(SPDF).
 Do as many integral derivatives as possible in FoFJK.
 G2DrvN: MDV=    8053061304.
 G2DrvN: will do    29 centers at a time, making    1 passes.
 Calling FoFCou, ICntrl=  3107 FMM=F I1Cent=   0 AccDes= 0.00D+00.
 FoFJK:  IHMeth= 1 ICntrl=    3107 DoSepK=F KAlg= 0 I1Cent=           0 FoldK=F
 IRaf=         0 NMat=       1 IRICut=       1 DoRegI=T DoRafI=F ISym2E= 0 IDoP0=0 IntGTp=1.
 FoFCou: FMM=F IPFlag=           0 FMFlag=      100000 FMFlg1=           0
         NFxFlg=           0 DoJE=F BraDBF=F KetDBF=F FulRan=T
         wScrn=  0.000000 ICntrl=      3107 IOpCl=  0 I1Cent=           0 NGrid=           0
         NMat0=    1 NMatS0=      1 NMatT0=    0 NMatD0=    1 NMtDS0=    0 NMtDT0=    0
 Symmetry not used in FoFCou.
 NEqPCM:  Using equilibrium solvation (IEInf=0, Eps=  78.3553, EpsInf=   1.7778)
 G2PCM: DoFxE=T DoFxN=T DoGrad=T DoDP/DQ/DG/TGxP=FFFF NFrqRd=   0 IEInf=0 SqF1=F DoCFld=F IF1Alg=4.
 GePol: Maximum number of non-zero 1st derivatives   =     221
 End of G2Drv F.D. properties file   721 does not exist.
 End of G2Drv F.D. properties file   722 does not exist.
 End of G2Drv F.D. properties file   788 does not exist.
 Leave Link 1110 at Tue Jul  9 02:20:22 2024, MaxMem=  8053063680 cpu:            2935.1 elap:             183.5
 (Enter /share/apps/g16.b01_avx2/g16/l1002.exe)
 Minotr:  Closed shell wavefunction.
          IDoAtm=1111111111111111111111111111
 NEqPCM:  Using equilibrium solvation (IEInf=0, Eps=  78.3553, EpsInf=   1.7778)
          Direct CPHF calculation.
          Differentiating once with respect to nuclear coordinates.
          Requested convergence is 1.0D-08 RMS, and 1.0D-07 maximum.
          Secondary convergence is 1.0D-12 RMS, and 1.0D-12 maximum.
          NewPWx=T KeepS1=F KeepF1=F KeepIn=T MapXYZ=F SortEE=F KeepMc=T.
        19517 words used for storage of precomputed grid.
 Two-electron integrals replicated using symmetry.
          MDV=    8053063680 using IRadAn=   99302.
          Solving linear equations simultaneously, MaxMat=     384.
 FoF2E skips out because all densities are zero.
 CalDSu exits because no D1Ps are significant.
 FoFJK:  IHMeth= 1 ICntrl=       0 DoSepK=F KAlg= 0 I1Cent=           0 FoldK=F
 IRaf= 750000000 NMat=      84 IRICut=     210 DoRegI=T DoRafI=T ISym2E= 2 IDoP0=3 IntGTp=3.
          There are    87 degrees of freedom in the 1st order CPHF.  IDoFFX=6 NUNeed=     0.
     81 vectors produced by pass  0 Test12= 5.23D-14 1.15D-09 XBig12= 1.39D-01 1.73D-01.
 AX will form    81 AO Fock derivatives at one time.
     81 vectors produced by pass  1 Test12= 5.23D-14 1.15D-09 XBig12= 2.70D-02 3.28D-02.
     81 vectors produced by pass  2 Test12= 5.23D-14 1.15D-09 XBig12= 5.37D-04 2.62D-03.
     81 vectors produced by pass  3 Test12= 5.23D-14 1.15D-09 XBig12= 4.38D-06 3.06D-04.
     81 vectors produced by pass  4 Test12= 5.23D-14 1.15D-09 XBig12= 1.61D-08 1.39D-05.
     81 vectors produced by pass  5 Test12= 5.23D-14 1.15D-09 XBig12= 4.12D-11 5.10D-07.
     55 vectors produced by pass  6 Test12= 5.23D-14 1.15D-09 XBig12= 9.82D-14 2.88D-08.
      3 vectors produced by pass  7 Test12= 5.23D-14 1.15D-09 XBig12= 3.93D-16 1.57D-09.
      3 vectors produced by pass  8 Test12= 5.23D-14 1.15D-09 XBig12= 2.06D-15 3.10D-09.
      3 vectors produced by pass  9 Test12= 5.23D-14 1.15D-09 XBig12= 2.21D-14 1.04D-08.
      3 vectors produced by pass 10 Test12= 5.23D-14 1.15D-09 XBig12= 1.74D-14 9.59D-09.
      3 vectors produced by pass 11 Test12= 5.23D-14 1.15D-09 XBig12= 3.78D-15 3.53D-09.
      3 vectors produced by pass 12 Test12= 5.23D-14 1.15D-09 XBig12= 8.65D-15 6.06D-09.
      3 vectors produced by pass 13 Test12= 5.23D-14 1.15D-09 XBig12= 5.50D-15 6.09D-09.
      2 vectors produced by pass 14 Test12= 5.23D-14 1.15D-09 XBig12= 1.47D-15 3.06D-09.
 InvSVY:  IOpt=1 It=  1 EMax= 6.11D-16
 Solved reduced A of dimension   564 with    87 vectors.
 End of Minotr F.D. properties file   721 does not exist.
 End of Minotr F.D. properties file   722 does not exist.
 End of Minotr F.D. properties file   788 does not exist.
 Leave Link 1002 at Tue Jul  9 02:32:00 2024, MaxMem=  8053063680 cpu:           11149.4 elap:             696.8
 (Enter /share/apps/g16.b01_avx2/g16/l601.exe)
 Copying SCF densities to generalized density rwf, IOpCl= 0 IROHF=0.

 **********************************************************************

            Population analysis using the SCF Density.

 **********************************************************************

 Orbital symmetries:
       Occupied  (A) (A) (A) (A) (A) (A) (A) (A) (A) (A) (A) (A)
                 (A) (A) (A) (A) (A) (A) (A) (A) (A) (A) (A) (A)
                 (A) (A) (A) (A) (A) (A) (A) (A) (A) (A) (A) (A)
                 (A) (A) (A) (A) (A) (A) (A) (A) (A) (A) (A) (A)
                 (A) (A) (A) (A) (A) (A) (A) (A) (A) (A) (A) (A)
                 (A) (A) (A) (A) (A) (A) (A) (A) (A) (A) (A) (A)
                 (A) (A) (A) (A) (A)
       Virtual   (A) (A) (A) (A) (A) (A) (A) (A) (A) (A) (A) (A)
                 (A) (A) (A) (A) (A) (A) (A) (A) (A) (A) (A) (A)
                 (A) (A) (A) (A) (A) (A) (A) (A) (A) (A) (A) (A)
                 (A) (A) (A) (A) (A) (A) (A) (A) (A) (A) (A) (A)
                 (A) (A) (A) (A) (A) (A) (A) (A) (A) (A) (A) (A)
                 (A) (A) (A) (A) (A) (A) (A) (A) (A) (A) (A) (A)
                 (A) (A) (A) (A) (A) (A) (A) (A) (A) (A) (A) (A)
                 (A) (A) (A) (A) (A) (A) (A) (A) (A) (A) (A) (A)
                 (A) (A) (A) (A) (A) (A) (A) (A) (A) (A) (A) (A)
                 (A) (A) (A) (A) (A) (A) (A) (A) (A) (A) (A) (A)
                 (A) (A) (A) (A) (A) (A) (A) (A) (A) (A) (A) (A)
                 (A) (A) (A) (A) (A) (A) (A) (A) (A) (A) (A) (A)
                 (A) (A) (A) (A) (A) (A) (A) (A) (A) (A) (A) (A)
                 (A) (A) (A) (A) (A) (A) (A) (A) (A) (A) (A) (A)
                 (A) (A) (A) (A) (A) (A) (A) (A) (A) (A) (A) (A)
                 (A) (A) (A) (A) (A) (A) (A) (A) (A) (A) (A) (A)
                 (A) (A) (A) (A) (A) (A) (A) (A) (A) (A) (A) (A)
                 (A) (A) (A) (A) (A) (A) (A) (A) (A) (A) (A) (A)
                 (A) (A) (A) (A) (A) (A) (A) (A) (A) (A) (A) (A)
                 (A) (A) (A) (A) (A) (A) (A) (A) (A) (A) (A) (A)
                 (A) (A) (A) (A) (A) (A) (A) (A) (A) (A) (A) (A)
                 (A) (A) (A) (A) (A) (A) (A) (A) (A) (A) (A) (A)
                 (A) (A) (A) (A) (A) (A) (A) (A) (A) (A) (A) (A)
                 (A) (A) (A) (A) (A) (A) (A) (A) (A) (A) (A) (A)
                 (A) (A) (A) (A) (A) (A) (A) (A) (A) (A) (A) (A)
                 (A) (A) (A) (A) (A) (A) (A) (A) (A) (A) (A) (A)
                 (A) (A) (A) (A) (A) (A) (A) (A) (A) (A) (A) (A)
                 (A) (A) (A) (A) (A) (A) (A) (A) (A) (A) (A) (A)
                 (A) (A) (A) (A) (A) (A) (A) (A) (A) (A) (A) (A)
                 (A) (A) (A) (A) (A) (A) (A) (A) (A) (A) (A) (A)
                 (A) (A) (A) (A) (A) (A) (A) (A) (A) (A) (A) (A)
                 (A) (A) (A) (A) (A) (A) (A) (A) (A) (A) (A) (A)
                 (A) (A) (A) (A) (A) (A) (A) (A) (A) (A) (A) (A)
                 (A) (A) (A) (A) (A) (A) (A) (A) (A) (A) (A) (A)
                 (A) (A) (A) (A) (A) (A) (A) (A) (A) (A) (A) (A)
                 (A) (A) (A) (A) (A) (A) (A) (A) (A) (A) (A) (A)
                 (A) (A) (A) (A) (A) (A) (A) (A) (A) (A) (A) (A)
                 (A) (A) (A) (A) (A) (A) (A) (A) (A) (A) (A) (A)
                 (A) (A) (A) (A) (A) (A) (A) (A) (A) (A) (A) (A)
                 (A) (A) (A) (A) (A) (A) (A) (A) (A) (A) (A) (A)
                 (A) (A) (A) (A) (A) (A) (A) (A) (A) (A) (A) (A)
                 (A) (A) (A) (A) (A) (A) (A) (A) (A) (A) (A) (A)
                 (A) (A) (A) (A) (A) (A) (A) (A) (A) (A) (A) (A)
                 (A) (A) (A) (A) (A) (A) (A) (A) (A) (A) (A) (A)
                 (A) (A) (A) (A) (A) (A) (A) (A) (A) (A) (A) (A)
                 (A) (A) (A) (A) (A) (A) (A) (A) (A) (A) (A) (A)
                 (A) (A) (A) (A) (A) (A) (A) (A) (A) (A) (A) (A)
                 (A) (A) (A) (A) (A) (A) (A) (A) (A) (A) (A) (A)
                 (A) (A) (A) (A) (A) (A) (A) (A) (A) (A) (A) (A)
                 (A) (A) (A)
 The electronic state is 1-A.
 Alpha  occ. eigenvalues --  -24.82124 -24.82006 -24.82001 -24.81741 -24.81651
 Alpha  occ. eigenvalues --  -24.81604 -24.81132 -19.24604 -19.16028 -14.44065
 Alpha  occ. eigenvalues --  -10.50213 -10.36457 -10.34977 -10.34884 -10.33952
 Alpha  occ. eigenvalues --  -10.33805 -10.32175 -10.28291 -10.25570 -10.21851
 Alpha  occ. eigenvalues --   -1.36018  -1.30617  -1.30426  -1.29246  -1.28925
 Alpha  occ. eigenvalues --   -1.27608  -1.27498  -1.12449  -1.03827  -0.96666
 Alpha  occ. eigenvalues --   -0.93560  -0.83719  -0.81101  -0.77787  -0.74387
 Alpha  occ. eigenvalues --   -0.71797  -0.69652  -0.69468  -0.63847  -0.63700
 Alpha  occ. eigenvalues --   -0.63088  -0.62907  -0.61009  -0.59386  -0.57625
 Alpha  occ. eigenvalues --   -0.57420  -0.56397  -0.55120  -0.54646  -0.53432
 Alpha  occ. eigenvalues --   -0.52969  -0.51329  -0.50568  -0.50465  -0.49862
 Alpha  occ. eigenvalues --   -0.49442  -0.48631  -0.48081  -0.47382  -0.46882
 Alpha  occ. eigenvalues --   -0.46606  -0.45917  -0.45254  -0.44381  -0.42854
 Alpha  occ. eigenvalues --   -0.42356  -0.42050  -0.41745  -0.40466  -0.39839
 Alpha  occ. eigenvalues --   -0.38651  -0.38107  -0.33381  -0.30064  -0.28051
 Alpha  occ. eigenvalues --   -0.27516  -0.27066
 Alpha virt. eigenvalues --   -0.04244  -0.01578   0.00340   0.04114   0.05865
 Alpha virt. eigenvalues --    0.06840   0.08109   0.08621   0.10139   0.10973
 Alpha virt. eigenvalues --    0.11305   0.12115   0.12809   0.13273   0.13498
 Alpha virt. eigenvalues --    0.14251   0.14451   0.15103   0.16528   0.17654
 Alpha virt. eigenvalues --    0.17720   0.18898   0.19363   0.20076   0.20401
 Alpha virt. eigenvalues --    0.21187   0.21656   0.22346   0.22798   0.23662
 Alpha virt. eigenvalues --    0.24324   0.25045   0.25357   0.25914   0.26638
 Alpha virt. eigenvalues --    0.27232   0.27431   0.28262   0.29353   0.29875
 Alpha virt. eigenvalues --    0.30725   0.31249   0.31815   0.33568   0.33995
 Alpha virt. eigenvalues --    0.35416   0.35703   0.36314   0.37924   0.38859
 Alpha virt. eigenvalues --    0.39191   0.39470   0.40231   0.40402   0.40952
 Alpha virt. eigenvalues --    0.41416   0.42604   0.42858   0.43374   0.43761
 Alpha virt. eigenvalues --    0.44341   0.44597   0.44819   0.45762   0.46377
 Alpha virt. eigenvalues --    0.47399   0.47469   0.47958   0.49447   0.50320
 Alpha virt. eigenvalues --    0.50786   0.51464   0.52402   0.52630   0.53664
 Alpha virt. eigenvalues --    0.53984   0.54094   0.54919   0.56219   0.56745
 Alpha virt. eigenvalues --    0.58054   0.59467   0.60131   0.61905   0.62782
 Alpha virt. eigenvalues --    0.63029   0.64582   0.65606   0.65734   0.66817
 Alpha virt. eigenvalues --    0.67073   0.68384   0.69071   0.70051   0.70732
 Alpha virt. eigenvalues --    0.71357   0.73262   0.73780   0.74582   0.75271
 Alpha virt. eigenvalues --    0.76220   0.76454   0.76911   0.77189   0.78454
 Alpha virt. eigenvalues --    0.79471   0.80991   0.81784   0.82671   0.83315
 Alpha virt. eigenvalues --    0.84114   0.84417   0.84730   0.85701   0.86251
 Alpha virt. eigenvalues --    0.87196   0.88202   0.88462   0.89219   0.90341
 Alpha virt. eigenvalues --    0.91852   0.93726   0.94287   0.94475   0.95780
 Alpha virt. eigenvalues --    0.95880   0.97024   0.97217   0.98536   0.99086
 Alpha virt. eigenvalues --    0.99953   1.00549   1.01999   1.02647   1.02979
 Alpha virt. eigenvalues --    1.04379   1.05668   1.06390   1.07758   1.08139
 Alpha virt. eigenvalues --    1.09550   1.10797   1.11611   1.13050   1.14271
 Alpha virt. eigenvalues --    1.15938   1.16746   1.17989   1.19563   1.20450
 Alpha virt. eigenvalues --    1.24007   1.24933   1.25608   1.26393   1.27252
 Alpha virt. eigenvalues --    1.29099   1.29311   1.31682   1.32577   1.33937
 Alpha virt. eigenvalues --    1.34754   1.36072   1.36964   1.39870   1.39973
 Alpha virt. eigenvalues --    1.44061   1.44315   1.45017   1.45088   1.46033
 Alpha virt. eigenvalues --    1.47296   1.47923   1.49337   1.50955   1.52520
 Alpha virt. eigenvalues --    1.54563   1.55332   1.55948   1.56619   1.57172
 Alpha virt. eigenvalues --    1.58478   1.59025   1.59637   1.61786   1.62072
 Alpha virt. eigenvalues --    1.64488   1.66864   1.68292   1.68695   1.69380
 Alpha virt. eigenvalues --    1.72599   1.72994   1.74519   1.76340   1.77907
 Alpha virt. eigenvalues --    1.79019   1.80115   1.81827   1.82119   1.83389
 Alpha virt. eigenvalues --    1.84709   1.85804   1.87035   1.87381   1.90236
 Alpha virt. eigenvalues --    1.90425   1.92934   1.93574   1.94675   1.95025
 Alpha virt. eigenvalues --    1.96074   1.96633   1.97576   1.98162   1.98556
 Alpha virt. eigenvalues --    1.99297   2.00535   2.01623   2.02535   2.04564
 Alpha virt. eigenvalues --    2.05348   2.05857   2.07164   2.07330   2.09631
 Alpha virt. eigenvalues --    2.10180   2.10302   2.11705   2.12499   2.14263
 Alpha virt. eigenvalues --    2.15657   2.18035   2.18514   2.19437   2.20204
 Alpha virt. eigenvalues --    2.21639   2.21970   2.22913   2.24554   2.27562
 Alpha virt. eigenvalues --    2.28218   2.28454   2.31441   2.31783   2.32910
 Alpha virt. eigenvalues --    2.33397   2.34022   2.34685   2.35690   2.35780
 Alpha virt. eigenvalues --    2.36489   2.36724   2.38354   2.38560   2.40969
 Alpha virt. eigenvalues --    2.44210   2.44953   2.46163   2.48112   2.48616
 Alpha virt. eigenvalues --    2.49023   2.49460   2.51260   2.54611   2.55272
 Alpha virt. eigenvalues --    2.55507   2.56262   2.56629   2.58240   2.58759
 Alpha virt. eigenvalues --    2.60113   2.60620   2.61230   2.63103   2.64577
 Alpha virt. eigenvalues --    2.66070   2.67014   2.67758   2.69561   2.69677
 Alpha virt. eigenvalues --    2.71325   2.72410   2.73456   2.75607   2.77201
 Alpha virt. eigenvalues --    2.77415   2.78142   2.78959   2.79964   2.82071
 Alpha virt. eigenvalues --    2.82695   2.83315   2.84446   2.86512   2.86952
 Alpha virt. eigenvalues --    2.88003   2.89083   2.90157   2.90796   2.91010
 Alpha virt. eigenvalues --    2.92669   2.93724   2.94947   2.95721   2.96677
 Alpha virt. eigenvalues --    2.97408   2.97780   3.00254   3.01009   3.01872
 Alpha virt. eigenvalues --    3.02242   3.03326   3.04167   3.05811   3.06782
 Alpha virt. eigenvalues --    3.07107   3.07775   3.09318   3.10522   3.10938
 Alpha virt. eigenvalues --    3.11273   3.13398   3.14221   3.15612   3.16117
 Alpha virt. eigenvalues --    3.17065   3.18360   3.18981   3.19963   3.20759
 Alpha virt. eigenvalues --    3.21449   3.22091   3.22853   3.23760   3.24122
 Alpha virt. eigenvalues --    3.25596   3.26024   3.26398   3.26723   3.28194
 Alpha virt. eigenvalues --    3.29862   3.30784   3.31395   3.33072   3.34417
 Alpha virt. eigenvalues --    3.35151   3.36218   3.36908   3.37497   3.39314
 Alpha virt. eigenvalues --    3.40203   3.40770   3.42503   3.43016   3.43154
 Alpha virt. eigenvalues --    3.45522   3.45880   3.46860   3.47564   3.48803
 Alpha virt. eigenvalues --    3.50559   3.51420   3.51765   3.53689   3.55208
 Alpha virt. eigenvalues --    3.55662   3.57339   3.58498   3.60633   3.62405
 Alpha virt. eigenvalues --    3.63086   3.64582   3.65624   3.68162   3.68558
 Alpha virt. eigenvalues --    3.70008   3.72055   3.72520   3.75188   3.77399
 Alpha virt. eigenvalues --    3.79390   3.79852   3.82590   3.83851   3.84734
 Alpha virt. eigenvalues --    3.85756   3.86614   3.87814   3.88275   3.89447
 Alpha virt. eigenvalues --    3.90409   3.92362   3.95114   3.96340   3.97428
 Alpha virt. eigenvalues --    3.98741   3.99443   4.00337   4.01422   4.01870
 Alpha virt. eigenvalues --    4.02743   4.04380   4.05449   4.07954   4.10158
 Alpha virt. eigenvalues --    4.11730   4.14741   4.15180   4.15501   4.17927
 Alpha virt. eigenvalues --    4.18269   4.20198   4.20998   4.21975   4.23597
 Alpha virt. eigenvalues --    4.26030   4.29830   4.33359   4.34641   4.39157
 Alpha virt. eigenvalues --    4.39549   4.40799   4.40987   4.42303   4.45519
 Alpha virt. eigenvalues --    4.46295   4.47505   4.51819   4.57105   4.57599
 Alpha virt. eigenvalues --    4.58803   4.61812   4.64471   4.68807   4.73373
 Alpha virt. eigenvalues --    4.80316   4.84518   4.87029   4.88077   4.89657
 Alpha virt. eigenvalues --    4.91388   4.94124   4.95299   4.96659   4.98410
 Alpha virt. eigenvalues --    5.02882   5.05643   5.10231   5.14580   5.16175
 Alpha virt. eigenvalues --    5.21483   5.24187   5.25208   5.28430   5.34518
 Alpha virt. eigenvalues --    5.35833   5.40947   5.41892   5.43069   5.45992
 Alpha virt. eigenvalues --    5.47254   5.48678   5.54598   5.56290   5.57854
 Alpha virt. eigenvalues --    5.64247   5.65929   5.78618   5.82550   5.87372
 Alpha virt. eigenvalues --    5.95101   6.07249   6.20130   6.32791   6.38179
 Alpha virt. eigenvalues --    6.40989   6.49388   6.52529   6.59464   6.74038
 Alpha virt. eigenvalues --    6.77776   6.79913   6.84106   6.84572   6.84611
 Alpha virt. eigenvalues --    6.84821   6.85153   6.85381   6.85453   6.85522
 Alpha virt. eigenvalues --    6.85754   6.85823   6.86247   6.86658   6.86951
 Alpha virt. eigenvalues --    6.86986   6.87500   6.88621   6.93803   6.94225
 Alpha virt. eigenvalues --    6.95418   6.97543   6.97869   7.00398   7.00639
 Alpha virt. eigenvalues --    7.00859   7.02498   7.03471   7.03885   7.04437
 Alpha virt. eigenvalues --    7.09149   7.10075   7.11145   7.13106   7.16846
 Alpha virt. eigenvalues --    7.17307   7.17921   7.19363   7.29164   7.29455
 Alpha virt. eigenvalues --    7.30653   7.31441   7.33457   7.33790   7.35790
 Alpha virt. eigenvalues --    7.37667   7.39419   7.46613   7.49997   7.52806
 Alpha virt. eigenvalues --    7.54595   7.54984   7.55918   7.59376   7.75494
 Alpha virt. eigenvalues --    7.98529   8.29537   8.30734   8.31729   8.33694
 Alpha virt. eigenvalues --    8.34820   8.37433   8.41425   8.44266   8.45294
 Alpha virt. eigenvalues --    8.48197   8.53756   8.54282   8.58587   8.70807
 Alpha virt. eigenvalues --    8.71557   8.72747   8.73096   8.77272   8.78701
 Alpha virt. eigenvalues --    8.81103   8.84433   8.86089   8.87874   8.90807
 Alpha virt. eigenvalues --    8.92617   8.99054   9.00266   9.01189   9.01836
 Alpha virt. eigenvalues --    9.04323   9.05410   9.06886   9.09153   9.12393
 Alpha virt. eigenvalues --    9.30696  22.25688  22.43910  22.47476  22.78647
 Alpha virt. eigenvalues --   23.02487  23.03566  23.10746  23.14757  23.18508
 Alpha virt. eigenvalues --   23.75732  32.20206  44.17868  44.57260  57.24581
 Alpha virt. eigenvalues --   57.31497  57.32380  57.40899  57.42014  57.57301
 Alpha virt. eigenvalues --   57.62934
          Condensed to atoms (all electrons):
               1          2          3          4          5          6
     1  H    0.435592   0.004292  -0.007506   0.341404  -0.022210  -0.020195
     2  O    0.004292   8.018632   0.673690  -0.083962   0.003764  -0.009671
     3  C   -0.007506   0.673690   4.692476   0.076069   0.000169  -0.025048
     4  N    0.341404  -0.083962   0.076069   6.460731   0.346086   0.272195
     5  H   -0.022210   0.003764   0.000169   0.346086   0.423713  -0.023773
     6  C   -0.020195  -0.009671  -0.025048   0.272195  -0.023773   4.895636
     7  H    0.006724  -0.000048  -0.005251  -0.033601  -0.006326   0.413238
     8  H   -0.002831   0.018297   0.001286  -0.045907   0.007447   0.404777
     9  H   -0.007686  -0.000155   0.004176  -0.021995  -0.003686   0.406976
    10  C    0.006601  -0.084920   0.354904  -0.043238  -0.003986   0.004556
    11  H   -0.000345   0.001762  -0.040224   0.007724  -0.000188  -0.000322
    12  H    0.000004   0.002870  -0.045355  -0.001253  -0.000060   0.001816
    13  H   -0.000324   0.006049  -0.028575   0.005567  -0.001262  -0.001029
    14  O   -0.001678  -0.090615   0.220574  -0.046279   0.002748   0.003654
    15  C   -0.003997  -0.017184  -0.142411   0.031421  -0.001126  -0.000681
    16  C   -0.001957   0.026904   0.009835  -0.016403   0.001856   0.000867
    17  C    0.000353   0.025238  -0.027932   0.005588  -0.000293  -0.000126
    18  C   -0.001191  -0.003477   0.003933  -0.000697   0.000060   0.000132
    19  C    0.000085  -0.008172   0.002859   0.000177  -0.000030  -0.000032
    20  C   -0.000026  -0.000285  -0.001519  -0.000010   0.000005  -0.000001
    21  F    0.011539  -0.000365  -0.000796  -0.003551   0.000212  -0.000098
    22  F    0.000003  -0.002921   0.007984  -0.000021   0.000001   0.000005
    23  F   -0.000013  -0.000001   0.000023  -0.000000  -0.000000   0.000000
    24  F   -0.000000   0.000000   0.000016  -0.000000   0.000000   0.000000
    25  C   -0.000003  -0.000034  -0.000101   0.000003  -0.000000  -0.000000
    26  F    0.000000  -0.000000   0.000000  -0.000000  -0.000000   0.000000
    27  F   -0.000000   0.000000  -0.000000   0.000000  -0.000000  -0.000000
    28  F   -0.000000   0.000000   0.000000  -0.000000  -0.000000   0.000000
               7          8          9         10         11         12
     1  H    0.006724  -0.002831  -0.007686   0.006601  -0.000345   0.000004
     2  O   -0.000048   0.018297  -0.000155  -0.084920   0.001762   0.002870
     3  C   -0.005251   0.001286   0.004176   0.354904  -0.040224  -0.045355
     4  N   -0.033601  -0.045907  -0.021995  -0.043238   0.007724  -0.001253
     5  H   -0.006326   0.007447  -0.003686  -0.003986  -0.000188  -0.000060
     6  C    0.413238   0.404777   0.406976   0.004556  -0.000322   0.001816
     7  H    0.503771  -0.020625  -0.020353   0.003700  -0.000131  -0.001499
     8  H   -0.020625   0.505946  -0.022820  -0.001530  -0.000189  -0.000085
     9  H   -0.020353  -0.022820   0.502421  -0.000768   0.000027   0.000392
    10  C    0.003700  -0.001530  -0.000768   5.036432   0.402536   0.413874
    11  H   -0.000131  -0.000189   0.000027   0.402536   0.513950  -0.016418
    12  H   -0.001499  -0.000085   0.000392   0.413874  -0.016418   0.517160
    13  H   -0.000432  -0.000150   0.000068   0.378271  -0.014159  -0.020447
    14  O   -0.000051   0.000751  -0.000070  -0.075959   0.000527   0.005579
    15  C    0.000091  -0.000839   0.000106   0.004075   0.000170   0.000156
    16  C    0.000016   0.000400  -0.000099   0.005258  -0.000280  -0.000009
    17  C   -0.000008  -0.000161   0.000008  -0.003355   0.000438   0.000101
    18  C   -0.000002   0.000008  -0.000008  -0.000456   0.000013  -0.000008
    19  C   -0.000001   0.000007   0.000001  -0.000390   0.000130   0.000026
    20  C    0.000000   0.000002  -0.000000  -0.000002  -0.000019   0.000001
    21  F   -0.000014   0.000010   0.000021  -0.000029   0.000002   0.000000
    22  F   -0.000000   0.000001  -0.000000  -0.001935   0.002319   0.000074
    23  F   -0.000000   0.000000   0.000000   0.000000  -0.000000   0.000000
    24  F    0.000000  -0.000000  -0.000000  -0.000001  -0.000001  -0.000000
    25  C   -0.000000  -0.000000   0.000000  -0.000002   0.000000   0.000000
    26  F    0.000000  -0.000000   0.000000   0.000000  -0.000000  -0.000000
    27  F    0.000000   0.000000  -0.000000  -0.000000  -0.000000  -0.000000
    28  F    0.000000  -0.000000   0.000000   0.000000  -0.000000   0.000000
              13         14         15         16         17         18
     1  H   -0.000324  -0.001678  -0.003997  -0.001957   0.000353  -0.001191
     2  O    0.006049  -0.090615  -0.017184   0.026904   0.025238  -0.003477
     3  C   -0.028575   0.220574  -0.142411   0.009835  -0.027932   0.003933
     4  N    0.005567  -0.046279   0.031421  -0.016403   0.005588  -0.000697
     5  H   -0.001262   0.002748  -0.001126   0.001856  -0.000293   0.000060
     6  C   -0.001029   0.003654  -0.000681   0.000867  -0.000126   0.000132
     7  H   -0.000432  -0.000051   0.000091   0.000016  -0.000008  -0.000002
     8  H   -0.000150   0.000751  -0.000839   0.000400  -0.000161   0.000008
     9  H    0.000068  -0.000070   0.000106  -0.000099   0.000008  -0.000008
    10  C    0.378271  -0.075959   0.004075   0.005258  -0.003355  -0.000456
    11  H   -0.014159   0.000527   0.000170  -0.000280   0.000438   0.000013
    12  H   -0.020447   0.005579   0.000156  -0.000009   0.000101  -0.000008
    13  H    0.533980   0.004715   0.000307  -0.001268   0.000491   0.000042
    14  O    0.004715   8.036844   0.281702  -0.031407  -0.029398   0.009570
    15  C    0.000307   0.281702   5.347695   0.182649   0.280148   0.025564
    16  C   -0.001268  -0.031407   0.182649   5.210867   0.060845   0.295641
    17  C    0.000491  -0.029398   0.280148   0.060845   5.024033  -0.067415
    18  C    0.000042   0.009570   0.025564   0.295641  -0.067415   5.052812
    19  C    0.000045   0.012443  -0.016430  -0.075784   0.360882  -0.000156
    20  C    0.000001   0.001056  -0.025855  -0.026390  -0.050340   0.237163
    21  F    0.000001  -0.001423  -0.037188   0.245082   0.005308  -0.036137
    22  F   -0.000066   0.001173  -0.060807   0.004878   0.286026  -0.000368
    23  F   -0.000000  -0.000044   0.008236  -0.047670  -0.001552   0.318861
    24  F    0.000000  -0.000051   0.008652  -0.001272  -0.045006   0.001840
    25  C    0.000000  -0.000033  -0.004880   0.011298   0.009533  -0.029606
    26  F    0.000000  -0.000000   0.000304  -0.000652  -0.000789   0.006207
    27  F   -0.000000  -0.000000   0.000469  -0.000941  -0.001048   0.015290
    28  F    0.000000  -0.000000   0.000316  -0.000841  -0.000308   0.003885
              19         20         21         22         23         24
     1  H    0.000085  -0.000026   0.011539   0.000003  -0.000013  -0.000000
     2  O   -0.008172  -0.000285  -0.000365  -0.002921  -0.000001   0.000000
     3  C    0.002859  -0.001519  -0.000796   0.007984   0.000023   0.000016
     4  N    0.000177  -0.000010  -0.003551  -0.000021  -0.000000  -0.000000
     5  H   -0.000030   0.000005   0.000212   0.000001  -0.000000   0.000000
     6  C   -0.000032  -0.000001  -0.000098   0.000005   0.000000   0.000000
     7  H   -0.000001   0.000000  -0.000014  -0.000000  -0.000000   0.000000
     8  H    0.000007   0.000002   0.000010   0.000001   0.000000  -0.000000
     9  H    0.000001  -0.000000   0.000021  -0.000000   0.000000  -0.000000
    10  C   -0.000390  -0.000002  -0.000029  -0.001935   0.000000  -0.000001
    11  H    0.000130  -0.000019   0.000002   0.002319  -0.000000  -0.000001
    12  H    0.000026   0.000001   0.000000   0.000074   0.000000  -0.000000
    13  H    0.000045   0.000001   0.000001  -0.000066  -0.000000   0.000000
    14  O    0.012443   0.001056  -0.001423   0.001173  -0.000044  -0.000051
    15  C   -0.016430  -0.025855  -0.037188  -0.060807   0.008236   0.008652
    16  C   -0.075784  -0.026390   0.245082   0.004878  -0.047670  -0.001272
    17  C    0.360882  -0.050340   0.005308   0.286026  -0.001552  -0.045006
    18  C   -0.000156   0.237163  -0.036137  -0.000368   0.318861   0.001840
    19  C    5.044860   0.241596   0.000150  -0.039960   0.001696   0.313578
    20  C    0.241596   5.758284   0.010268   0.010703  -0.075561  -0.076275
    21  F    0.000150   0.010268   8.994385  -0.000029   0.000499   0.000000
    22  F   -0.039960   0.010703  -0.000029   8.968725   0.000000   0.000531
    23  F    0.001696  -0.075561   0.000499   0.000000   8.962860  -0.000029
    24  F    0.313578  -0.076275   0.000000   0.000531  -0.000029   8.963950
    25  C   -0.037701   0.341695  -0.000072  -0.000042   0.012178   0.013415
    26  F    0.004043  -0.076638   0.000002   0.000000  -0.012129  -0.000090
    27  F    0.015783  -0.106679   0.000001   0.000001  -0.000193  -0.000224
    28  F    0.006855  -0.077212   0.000000   0.000002  -0.000089  -0.011142
              25         26         27         28
     1  H   -0.000003   0.000000  -0.000000  -0.000000
     2  O   -0.000034  -0.000000   0.000000   0.000000
     3  C   -0.000101   0.000000  -0.000000   0.000000
     4  N    0.000003  -0.000000   0.000000  -0.000000
     5  H   -0.000000  -0.000000  -0.000000  -0.000000
     6  C   -0.000000   0.000000  -0.000000   0.000000
     7  H   -0.000000   0.000000   0.000000   0.000000
     8  H   -0.000000  -0.000000   0.000000  -0.000000
     9  H    0.000000   0.000000  -0.000000   0.000000
    10  C   -0.000002   0.000000  -0.000000   0.000000
    11  H    0.000000  -0.000000  -0.000000  -0.000000
    12  H    0.000000  -0.000000  -0.000000   0.000000
    13  H    0.000000   0.000000  -0.000000   0.000000
    14  O   -0.000033  -0.000000  -0.000000  -0.000000
    15  C   -0.004880   0.000304   0.000469   0.000316
    16  C    0.011298  -0.000652  -0.000941  -0.000841
    17  C    0.009533  -0.000789  -0.001048  -0.000308
    18  C   -0.029606   0.006207   0.015290   0.003885
    19  C   -0.037701   0.004043   0.015783   0.006855
    20  C    0.341695  -0.076638  -0.106679  -0.077212
    21  F   -0.000072   0.000002   0.000001   0.000000
    22  F   -0.000042   0.000000   0.000001   0.000002
    23  F    0.012178  -0.012129  -0.000193  -0.000089
    24  F    0.013415  -0.000090  -0.000224  -0.011142
[...]
 526,0.00569321,-0.04254620,0.04870954,-0.05101494,-0.00267615,-0.00096
 250,0.00512058,-0.01141345,0.01573252,0.00337868,0.00162028,-0.0010083
 9,-0.00210595,-0.00276456,-0.00120617,0.00334280,0.05561377,-0.0633973
 0,0.04287352,-0.00010822,0.00001641,0.00002347,-0.00217298,0.00254603,
 -0.00079729,0.00029668,-0.00271337,0.00298140,-0.00018664,0.00062566,-
 0.00032029,-0.00004525,0.00008510,0.00000730,0.00006156,-0.00004076,-0
 .00005849,0.00000080,-0.00000546,-0.00000637,0.00002703,-0.00003421,-0
 .00001723,0.00000050,0.00000222,-0.00000401,0.00016290,-0.00011989,-0.
 00020531,0.00014445,0.00021937,0.00007159,0.00001118,0.00011634,0.0000
 1575,-0.00010270,0.00002084,-0.00002832,0.00648450,0.00355368,0.003072
 40,0.00818326,0.01538083,-0.00032005,-0.00602056,0.00101990,-0.0039797
 4,-0.10902436,-0.09928166,-0.01777963,0.00219215,0.00178983,0.00124695
 ,-0.01650814,-0.05188150,-0.00520881,-0.00550541,0.00449589,-0.0035249
 0,0.00130495,0.00050127,0.00028337,0.11805326,-0.00047630,0.00024231,0
 .00015347,-0.00067383,0.00101218,-0.00241443,-0.00263935,-0.00192410,0
 .00539291,0.00060419,-0.00018988,-0.00033623,-0.00003882,0.00004380,-0
 .00008904,-0.00006145,-0.00019233,0.00026537,0.00004061,0.00001820,-0.
 00003507,-0.00001580,0.00003643,-0.00000936,0.00008469,-0.00002900,-0.
 00010594,0.00052078,-0.00015050,-0.00064641,0.00015460,0.00012873,0.00
 005950,0.00019219,0.00021626,0.00007174,-0.00007131,-0.00000624,-0.000
 01526,0.00487849,0.00811630,-0.00071595,-0.02670746,-0.05642152,-0.006
 68516,0.00409924,0.00550039,0.00085005,-0.09719430,-0.31883004,-0.0171
 6450,-0.00004658,0.00536225,-0.00030708,-0.00987178,-0.03284310,-0.001
 18824,-0.00121938,-0.00085545,-0.00015840,0.00145376,-0.00592197,0.000
 70029,0.12973480,0.39507761,0.00003450,0.00002428,-0.00001115,0.000279
 05,-0.00119912,-0.00016885,-0.00029570,0.00002111,0.00048713,0.0004456
 8,-0.00037314,0.00006337,0.00002399,-0.00007157,-0.00004302,-0.0000546
 4,-0.00009121,0.00010672,0.00000930,0.00000769,0.00000016,-0.00002135,
 0.00003392,0.00000244,0.00003004,-0.00000237,-0.00004125,0.00007956,-0
 .00002946,-0.00010293,0.00001834,0.00005305,-0.00000118,0.00001157,0.0
 0004780,0.00001931,0.00003615,0.00000452,0.00002103,0.00467269,0.00052
 604,-0.00399473,0.00112803,0.00876312,0.00666383,-0.00414570,0.0002714
 8,0.00430364,-0.01789305,-0.01721621,-0.04227072,0.00156088,0.00018694
 ,-0.00185429,-0.00722620,-0.01440350,0.00622030,-0.00322790,0.00181190
 ,0.00380190,0.00031953,0.00051846,0.00031673,0.02183855,0.02339122,0.0
 2995434,0.00019806,-0.00015457,-0.00007294,-0.00039492,-0.00013527,0.0
 0101077,0.00223794,-0.00004639,-0.00270143,-0.00033273,0.00030004,0.00
 016149,0.00002867,-0.00002679,0.00004471,0.00004368,0.00011628,-0.0001
 5128,-0.00001803,-0.00001399,0.00001756,0.00000897,-0.00002867,-0.0000
 0465,-0.00005664,0.00002291,0.00005933,-0.00037086,0.00005312,0.000361
 82,0.00002128,0.00001626,0.00000557,-0.00014862,-0.00010055,-0.0000456
 1,0.00001504,0.00002209,-0.00000353,-0.00423599,-0.00311053,0.00062511
 ,-0.00309830,0.01012647,-0.00271960,-0.01842141,-0.05599509,-0.0057894
 9,0.00551998,0.00039234,0.00221676,-0.10443062,-0.08859717,-0.01527449
 ,-0.00909518,-0.00147674,-0.00432118,0.01883640,0.01912033,0.00304063,
 0.00319765,-0.00089679,0.00253045,-0.00109608,-0.00296517,-0.00033932,
 0.12064925,0.00039275,-0.00025755,-0.00012826,-0.00112347,-0.00014032,
 0.00133400,0.00388360,0.00018041,-0.00335391,-0.00068588,0.00054784,0.
 00030399,0.00004292,-0.00003435,0.00008243,0.00008117,0.00022238,-0.00
 028103,-0.00003503,-0.00002453,0.00003224,0.00001906,-0.00005426,-0.00
 000979,-0.00010767,0.00004063,0.00011076,-0.00046392,0.00006083,0.0004
 2724,0.00003016,0.00003088,0.00000501,-0.00020894,-0.00012595,-0.00006
 376,0.00000822,0.00002647,-0.00001916,-0.00600858,-0.00232591,0.000430
 27,0.00416552,0.00628400,0.00170562,-0.01642227,-0.04045589,-0.0021708
 8,0.00590307,0.00388780,0.00121656,-0.09183898,-0.32064487,-0.01199454
 ,-0.00135458,0.00144372,-0.00041850,-0.01136255,-0.04426483,-0.0007129
 9,-0.00039259,0.01097287,-0.00100028,-0.00365603,-0.00867944,-0.000739
 64,0.11962065,0.39952974,0.00005339,-0.00005851,-0.00001614,0.00002520
 ,-0.00012353,0.00017630,0.00044740,0.00017571,-0.00054801,-0.00007727,
 0.00007901,0.00005930,0.00000735,-0.00001220,0.00001175,0.00000679,0.0
 0003507,-0.00003732,-0.00000477,-0.00000305,0.00000527,0.00000032,-0.0
 0000530,0.00000103,-0.00001487,0.00000419,0.00001701,-0.00008782,0.000
 00637,0.00006782,0.00000595,0.00000801,0.00000081,-0.00003464,-0.00001
 853,-0.00000431,0.00001050,0.00000536,0.00000593,-0.00071743,-0.001138
 23,-0.00035384,-0.00287339,0.00337339,0.00463560,-0.00796131,-0.014531
 62,0.00905546,0.00183949,-0.00028909,-0.00134706,-0.01476730,-0.011139
 71,-0.04289342,-0.00430438,-0.00032429,0.00380440,0.00461281,0.0089419
 9,0.00605255,0.00246429,-0.00093836,-0.00450543,-0.00020794,-0.0004322
 3,0.00033815,0.02356325,0.01496463,0.02840963,0.00031179,-0.00019467,-
 0.00012902,-0.00085748,-0.00021593,0.00111309,0.00322671,0.00064762,-0
 .00285778,-0.00066454,0.00034550,0.00039503,0.00005436,-0.00004513,0.0
 0006030,0.00005716,0.00022150,-0.00024209,-0.00003303,-0.00001997,0.00
 002626,0.00001597,-0.00003850,-0.00000549,-0.00009408,0.00003074,0.000
 10116,-0.00028544,0.00001778,0.00025704,0.00000856,0.00000891,0.000001
 69,-0.00014167,-0.00008681,-0.00003686,0.00001296,0.00002263,-0.000004
 22,-0.00602312,0.00151203,0.00014155,0.00100781,-0.01226994,-0.0009915
 9,0.00651407,0.00088498,0.00257155,-0.03412320,0.05501340,-0.01687172,
 -0.00888618,-0.00165796,-0.00390531,-0.15758953,0.12002811,-0.04306098
 ,0.01581889,-0.00341261,0.00319306,-0.00309517,0.00432559,-0.00123971,
 0.00352382,-0.00127334,0.00288492,0.00162225,0.00137915,0.00010880,0.1
 8445683,-0.00044889,0.00018089,0.00016061,0.00096489,0.00019316,-0.000
 99543,-0.00299244,-0.00048555,0.00237306,0.00057207,-0.00035226,-0.000
 30598,-0.00004009,0.00003324,-0.00006786,-0.00006112,-0.00017000,0.000
 25131,0.00003796,0.00001908,-0.00003304,-0.00001609,0.00003800,0.00000
 522,0.00008506,-0.00003215,-0.00009165,0.00030012,-0.00001803,-0.00025
 597,-0.00000963,-0.00000970,0.00000297,0.00014479,0.00008314,0.0000420
 7,-0.00000456,-0.00001779,0.00001448,0.00455224,0.00074632,-0.00030402
 ,-0.00608811,0.00246356,-0.00164858,-0.00431706,0.00197297,-0.00153971
 ,0.01329168,-0.01866494,0.00594677,-0.00229159,0.00087089,-0.00063610,
 0.12278180,-0.25063189,0.04974265,0.02835657,-0.04569081,0.01156063,0.
 00480550,-0.00622918,0.00167441,-0.00032928,0.01112394,-0.00097580,0.0
 0047153,-0.00565588,0.00054111,-0.16218142,0.31010677,0.00011152,-0.00
 005683,-0.00004892,-0.00059117,0.00003490,0.00029747,0.00121249,-0.000
 13303,-0.00065996,-0.00019928,0.00018945,0.00008104,0.00001839,-0.0000
 1238,0.00002101,0.00002701,0.00005369,-0.00008226,-0.00001148,-0.00000
 708,0.00000954,0.00000610,-0.00001598,-0.00000261,-0.00002895,0.000012
 06,0.00003066,-0.00009633,-0.00000122,0.00008301,0.00000083,0.00000052
 ,-0.00000264,-0.00005304,-0.00002905,-0.00001335,0.00000071,0.00000800
 ,-0.00000647,-0.00168581,0.00062294,-0.00040351,-0.00146155,-0.0036768
 0,0.00556049,0.00292476,0.00002697,-0.00136248,-0.01423682,0.01839632,
 0.00464702,-0.00382042,-0.00039726,0.00346080,-0.04338068,0.04858425,-
 0.05494199,0.00141783,0.00216473,0.00631617,-0.00138938,0.00170342,0.0
 0012047,0.00286907,-0.00107945,-0.00451692,0.00011577,0.00083511,0.001
 06526,0.05821200,-0.06596080,0.04569355,-0.00056627,0.00044577,0.00021
 581,0.00142300,0.00059503,-0.00270654,-0.00735199,-0.00195825,0.006425
 46,0.00137409,-0.00082820,-0.00067079,-0.00008179,0.00004880,-0.000155
 16,-0.00013694,-0.00047472,0.00051037,0.00006433,0.00004742,-0.0000513
 5,-0.00003400,0.00009298,0.00001430,0.00020277,-0.00006433,-0.00021556
 ,0.00070970,-0.00009570,-0.00067256,-0.00002685,-0.00001901,0.00000659
 ,0.00034156,0.00021549,0.00011563,-0.00002019,-0.00003521,0.00003383,0
 .01451626,0.00388879,0.00071800,-0.00990324,-0.00102143,-0.00306510,0.
 00105071,0.00871379,-0.00200762,0.00300197,-0.00822253,0.00098495,-0.0
 1482928,0.02427428,-0.00719153,-0.00967008,-0.02911252,-0.00192983,-0.
 17644513,-0.00609929,-0.03499243,0.00482265,-0.00553611,0.00137762,0.0
 0345102,0.00674520,0.00053374,-0.00466298,-0.01342498,0.00081728,-0.00
 738413,0.01094546,-0.00138476,0.56143206,-0.00006902,0.00001672,0.0000
 2999,0.00001266,0.00003352,-0.00012064,-0.00025507,-0.00006850,0.00028
 349,0.00004855,-0.00003720,-0.00003240,-0.00000388,0.00000603,-0.00000
 689,-0.00000544,-0.00000895,0.00002698,0.00000400,0.00000135,-0.000005
 90,-0.00000039,0.00000487,-0.00000052,0.00000860,-0.00000430,-0.000008
 47,0.00002628,0.00000025,-0.00002607,0.00000280,0.00000173,0.00000123,
 0.00001147,0.00000922,0.00000242,-0.00000242,-0.00000150,0.00000076,0.
 00048134,0.00015881,0.00006285,0.00031479,-0.00279134,0.00007946,0.002
 07996,-0.00279343,0.00101265,-0.00212757,-0.00419354,-0.00020922,0.027
 39195,0.01699182,0.00758987,-0.03547178,0.00677201,-0.01099439,-0.0117
 6871,-0.09311545,-0.00151858,0.00210384,-0.00100695,0.00070197,-0.0016
 0662,-0.00091760,-0.00040716,-0.00645089,-0.00311963,-0.00198478,0.005
 44717,-0.00070146,0.00140810,0.02552269,0.51969649,-0.00017695,0.00014
 010,0.00007266,0.00057234,0.00018271,-0.00079585,-0.00227150,-0.000588
 31,0.00171726,0.00040175,-0.00023731,-0.00019747,-0.00002857,0.0000177
 2,-0.00004550,-0.00004725,-0.00014106,0.00015604,0.00001861,0.00001384
 ,-0.00001749,-0.00000685,0.00002952,0.00000233,0.00006245,-0.00002200,
 -0.00006317,0.00019528,-0.00003184,-0.00018357,-0.00001069,-0.00000784
 ,0.00000502,0.00010175,0.00006085,0.00002848,-0.00001213,-0.00000991,0
 .00000777,0.00403396,0.00122472,0.00090669,-0.00227749,-0.00033388,-0.
 00277105,-0.00063634,0.00313683,0.00342431,-0.00017390,-0.00211000,0.0
 0370999,-0.00753938,0.00651738,0.00085259,-0.00156504,-0.00914180,0.00
 244971,-0.03468724,0.00025649,-0.07088426,0.00101787,-0.00160856,0.001
 14692,0.00090067,0.00210279,0.00113898,0.00040611,-0.00405815,-0.00402
 180,-0.00105422,0.00313243,-0.00562417,0.02922199,0.00412358,0.4698675
 3,0.00012422,-0.00008757,-0.00004647,-0.00033002,-0.00009071,0.0005042
 8,0.00143307,0.00030864,-0.00120228,-0.00027121,0.00017313,0.00012945,
 0.00001630,-0.00001021,0.00003086,0.00002800,0.00008991,-0.00010273,-0
 .00001316,-0.00000938,0.00001076,0.00000714,-0.00001856,-0.00000306,-0
 .00003989,0.00001358,0.00004221,-0.00013989,0.00001620,0.00012959,0.00
 000758,0.00000664,-0.00000020,-0.00006798,-0.00004101,-0.00002203,0.00
 000288,0.00000782,-0.00000716,-0.00267471,-0.00064749,-0.00010380,0.00
 193193,0.00011792,0.00063639,0.00048133,-0.00171085,0.00043847,0.00078
 710,-0.00043890,0.00026355,0.00192935,-0.00212861,0.00105101,-0.007920
 40,0.00650954,-0.00323537,-0.01305946,-0.04407306,-0.00401049,-0.00097
 069,0.00120718,-0.00032546,-0.00168990,-0.00194311,-0.00039043,-0.0086
 1967,0.00529444,-0.00338799,0.00143338,-0.00104269,0.00040715,-0.11688
 643,-0.07383983,-0.01009809,0.11289051,0.00007649,-0.00006656,-0.00002
 992,-0.00023617,-0.00006666,0.00037008,0.00106694,0.00024348,-0.000877
 00,-0.00020327,0.00012962,0.00009487,0.00001165,-0.00000736,0.00002216
 ,0.00002099,0.00006972,-0.00007360,-0.00000864,-0.00000680,0.00000749,
 0.00000456,-0.00001473,-0.00000226,-0.00003036,0.00000988,0.00003135,-
 0.00009859,0.00001321,0.00009217,0.00000513,0.00000485,-0.00000039,-0.
 00004837,-0.00002986,-0.00001584,0.00000243,0.00000521,-0.00000560,-0.
 00203468,-0.00042669,-0.00013195,0.00147686,0.00010534,0.00053554,0.00
 004102,-0.00077371,0.00013033,0.00059677,-0.00002836,0.00005313,-0.001
 23190,-0.00820617,0.00003286,-0.00331434,0.00472791,-0.00120469,-0.014
 80664,-0.02257741,-0.00262780,-0.00075233,0.00099399,-0.00026312,-0.00
 104547,-0.00111586,-0.00029445,0.00882769,0.00366354,0.00253989,0.0000
 2100,-0.00036967,0.00004910,-0.08215995,-0.23512861,-0.01527296,0.0923
 9239,0.38434955,0.00003407,-0.00002298,-0.00001432,-0.00009764,-0.0000
 2364,0.00013010,0.00036794,0.00007652,-0.00029734,-0.00006832,0.000043
 66,0.00003380,0.00000438,-0.00000294,0.00000752,0.00000767,0.00002281,
 -0.00002717,-0.00000334,-0.00000226,0.00000314,0.00000145,-0.00000493,
 -0.00000060,-0.00001045,0.00000371,0.00001059,-0.00003530,0.00000467,0
 .00003307,0.00000227,0.00000192,-0.00000060,-0.00001761,-0.00001050,-0
 .00000527,0.00000137,0.00000178,-0.00000167,-0.00066080,-0.00017212,-0
 .00005769,0.00043468,0.00003838,0.00031881,0.00022230,-0.00047884,-0.0
 0019160,0.00035299,-0.00015565,-0.00033909,0.00094695,-0.00024255,-0.0
 0048302,-0.00265158,0.00177803,0.00052603,-0.00575289,-0.01157986,0.00
 768474,-0.00024281,0.00030608,-0.00009109,-0.00039493,-0.00052117,-0.0
 0029808,-0.00360005,0.00153486,0.00025095,0.00034082,-0.00027633,0.000
 43580,-0.00954097,-0.01278234,-0.07178192,0.00458764,0.01018911,0.0805
 2729,0.00020590,-0.00014961,-0.00007634,-0.00050271,-0.00021201,0.0008
 8712,0.00245187,0.00066069,-0.00206551,-0.00045209,0.00026945,0.000218
 32,0.00002860,-0.00001778,0.00005318,0.00004708,0.00015337,-0.00017043
 ,-0.00002212,-0.00001612,0.00001805,0.00001064,-0.00003035,-0.00000445
 ,-0.00006658,0.00002238,0.00007150,-0.00023151,0.00003178,0.00021668,0
 .00000841,0.00000519,-0.00000250,-0.00011289,-0.00007099,-0.00003669,0
 .00000751,0.00001250,-0.00001082,-0.00472963,-0.00138031,-0.00050592,0
 .00294013,0.00131129,0.00166400,-0.00050176,-0.00214229,-0.00126292,0.
 00025928,0.00272637,-0.00111008,-0.00259019,-0.01080496,0.00275347,-0.
 00058864,0.00694849,-0.00097249,-0.04275085,0.02661794,0.02290710,-0.0
 0186180,0.00180995,-0.00106303,-0.00084556,-0.00193487,-0.00023797,0.0
 0105792,0.00348780,0.00095131,0.00027989,-0.00437710,0.00200108,-0.159
 12350,0.05320126,0.06568900,0.01736869,0.01263154,0.00259503,0.1814519
 7,-0.00005184,0.00004320,0.00001929,0.00014838,0.00006796,-0.00025816,
 -0.00073006,-0.00021275,0.00060062,0.00013188,-0.00007477,-0.00006290,
 -0.00000788,0.00000414,-0.00001561,-0.00001305,-0.00004645,0.00004793,
 0.00000623,0.00000481,-0.00000459,-0.00000329,0.00000840,0.00000161,0.
 00001923,-0.00000607,-0.00002081,0.00006800,-0.00001064,-0.00006280,-0
 .00000290,-0.00000134,0.00000099,0.00003288,0.00002072,0.00001107,-0.0
 0000220,-0.00000364,0.00000339,0.00143298,0.00044769,0.00017928,-0.001
 04730,0.00002296,-0.00059229,0.00001524,0.00081520,0.00022748,0.000573
 08,-0.00050938,0.00065049,-0.00125591,0.00188753,-0.00052971,0.0023088
 7,-0.00523063,0.00087762,0.01436197,0.00446376,-0.00681666,0.00034304,
 -0.00035251,0.00017730,0.00031734,0.00065271,0.00013852,0.00055414,-0.
 00062589,-0.00014045,-0.00460537,0.00081624,-0.00031308,0.05357148,-0.
 10606012,-0.04577521,0.02506147,-0.06805541,-0.04336261,-0.08832781,0.
 15662451,-0.00003447,0.00001560,0.00001149,0.00007624,0.00002200,-0.00
 008513,-0.00028935,-0.00005908,0.00021418,0.00005293,-0.00003346,-0.00
 002405,-0.00000290,0.00000172,-0.00000740,-0.00000500,-0.00001569,0.00
 002084,0.00000332,0.00000218,-0.00000240,-0.00000190,0.00000309,0.0000
 0109,0.00000727,-0.00000269,-0.00000862,0.00002813,-0.00000293,-0.0000
 2416,-0.00000052,-0.00000050,-0.00000054,0.00001348,0.00000811,0.00000
 468,0.00000037,-0.00000206,0.00000206,0.00051101,0.00015320,0.00003509
 ,-0.00047584,0.00008918,-0.00023035,-0.00025744,-0.00035246,-0.0001819
 0,0.00026795,-0.00024048,0.00008824,0.00109024,0.00164428,-0.00033876,
 -0.00022284,-0.00137531,0.00059665,0.00637789,-0.00550902,0.00487600,0
 .00050987,-0.00029131,0.00021116,0.00022567,0.00040864,0.00001473,0.00
 032800,-0.00012584,0.00018876,-0.00002063,0.00111956,0.00002838,0.0664
 4321,-0.04344874,-0.12125621,0.00636757,-0.03666226,-0.00443889,-0.117
 08139,0.09662186,0.20172477,0.00014815,-0.00011125,-0.00005830,-0.0003
 1269,-0.00015903,0.00071112,0.00183551,0.00051541,-0.00169048,-0.00034
 417,0.00020644,0.00017398,0.00002072,-0.00001278,0.00003848,0.00003327
 ,0.00011921,-0.00012959,-0.00001656,-0.00001158,0.00001323,0.00000862,
 -0.00002333,-0.00000314,-0.00005103,0.00001592,0.00005420,-0.00018129,
 0.00002301,0.00017544,0.00000580,0.00000356,-0.00000199,-0.00008655,-0
 .00005554,-0.00002990,0.00000550,0.00000907,-0.00000804,-0.00374815,-0
 .00103556,-0.00010382,0.00247004,0.00105765,0.00044430,-0.00101579,-0.
 00175610,0.00119270,-0.00003641,0.00216778,0.00038695,-0.00064940,-0.0
 0827176,-0.00175645,-0.00054382,0.00478400,-0.00045021,-0.01348017,0.0
 1574680,-0.03734612,-0.00150588,0.00136154,-0.00014857,-0.00059225,-0.
 00137570,-0.00007428,0.00154494,0.00277699,-0.00047503,0.00083313,-0.0
 0310959,-0.00098505,-0.08526731,0.01494430,-0.04203614,0.01424191,-0.0
 1120478,0.01317712,0.00826196,-0.00289859,0.03608915,0.07842192,-0.000
 03937,0.00003579,0.00001650,0.00009063,0.00005919,-0.00024692,-0.00061
 396,-0.00019859,0.00057802,0.00011407,-0.00006227,-0.00005831,-0.00000
 680,0.00000335,-0.00001241,-0.00001039,-0.00004149,0.00004147,0.000005
 18,0.00000377,-0.00000376,-0.00000269,0.00000734,0.00000076,0.00001678
 ,-0.00000472,-0.00001779,0.00005966,-0.00000898,-0.00005813,-0.0000027
 1,-0.00000104,0.00000097,0.00002854,0.00001818,0.00001007,-0.00000212,
 -0.00000260,0.00000207,0.00128953,0.00038576,0.00004486,-0.00101721,0.
 00008667,-0.00023415,0.00012911,0.00074051,-0.00036381,0.00078919,-0.0
 0042226,-0.00003422,-0.00132794,0.00135367,-0.00064700,0.00214240,-0.0
 0479053,0.00112866,0.00665979,0.00695408,0.01157877,0.00026301,-0.0002
 6166,0.00004326,0.00028873,0.00054593,0.00000358,0.00035479,-0.0004818
 2,0.00046514,-0.00390449,0.00038110,-0.00240659,0.01394506,-0.09374422
 ,0.05839988,-0.00511689,-0.05744242,0.05563720,-0.00042580,0.01530978,
 -0.01196758,-0.01370608,0.13157748,0.00014655,-0.00009788,-0.00006348,
 -0.00028862,-0.00014365,0.00066581,0.00166441,0.00047015,-0.00156060,-
 0.00031236,0.00018271,0.00016303,0.00001984,-0.00001223,0.00003425,0.0
 0003031,0.00010693,-0.00012173,-0.00001556,-0.00001004,0.00001341,0.00
 000696,-0.00002147,-0.00000174,-0.00004677,0.00001471,0.00004890,-0.00
 016439,0.00002085,0.00016135,0.00000581,0.00000369,-0.00000233,-0.0000
 7969,-0.00004998,-0.00002682,0.00000593,0.00000762,-0.00000609,-0.0033
 4950,-0.00094682,-0.00005979,0.00241644,0.00056532,0.00049504,-0.00028
 957,-0.00084594,0.00084507,-0.00043061,0.00180530,0.00006211,-0.001237
 41,-0.00781504,-0.00192089,-0.00065489,0.00552894,0.00012286,-0.019508
 52,0.01677108,-0.02694509,-0.00170123,0.00130638,-0.00024763,-0.000682
 88,-0.00149206,-0.00014963,0.00053621,0.00209404,-0.00041865,0.0010123
 4,-0.00347600,-0.00018540,-0.04283457,0.05622275,-0.20784381,0.0083366
 3,0.04331376,-0.01193351,0.02457469,-0.00160257,-0.08141969,0.03284045
 ,-0.11190054,0.33029506\\0.00000042,0.00000015,-0.00000072,-0.00000171
 ,0.00000091,0.00000159,0.00000116,-0.00000318,-0.00000016,-0.00000025,
 0.00000259,0.00000187,-0.00000128,0.00000004,0.00000135,0.00000081,0.0
 0000123,0.00000097,0.00000074,0.00000128,0.00000159,0.00000141,0.00000
 120,0.00000128,0.00000091,0.00000113,0.00000119,-0.00000051,0.00000085
 ,0.00000093,-0.00000090,0.00000039,0.00000135,-0.00000041,0.00000079,0
 .00000168,-0.00000079,0.00000019,0.00000178,-0.00000057,0.00000317,0.0
 0000136,-0.00000029,-0.00000181,-0.00000054,0.00000064,-0.00000009,-0.
 00000144,-0.00000089,-0.00000055,-0.00000014,-0.00000273,0.00000039,0.
 00000682,0.00000050,0.00000050,-0.00000604,0.00000075,0.00000068,-0.00
 000164,0.00000016,-0.00000019,-0.00000005,0.00000006,-0.00000054,0.000
 00004,-0.00000216,0.,-0.00000463,0.00000215,0.00000157,0.00000539,0.00
 000460,-0.00000325,-0.00001334,0.00000295,-0.00000282,0.00000011,0.000
 00042,-0.00000178,0.00000036,-0.00000519,-0.00000283,-0.00000096\\\@


 IN THE WOODS WE RETURN TO REASON AND FAITH.

                                 -- EMERSON
 Job cpu time:       0 days  6 hours 20 minutes 48.6 seconds.
 Elapsed time:       0 days  0 hours 23 minutes 48.3 seconds.
 File lengths (MBytes):  RWF=   1272 Int=      0 D2E=      0 Chk=     48 Scr=      1
 Normal termination of Gaussian 16 at Tue Jul  9 03:21:56 2024.
