 Entering Gaussian System, Link 0=g16
 Input=input.com
 Output=input.log
 Initial command:
 /share/apps/g16.b01_avx2/g16/l1.exe "/scratch/Gau-727531.inp" -scrdir="/scratch/"
 Entering Link 1 = /share/apps/g16.b01_avx2/g16/l1.exe PID=    727533.
  
 Copyright (c) 1988-2017, Gaussian, Inc.  All Rights Reserved.
  
 This is part of the Gaussian(R) 16 program.  It is based on
 the Gaussian(R) 09 system (copyright 2009, Gaussian, Inc.),
 the Gaussian(R) 03 system (copyright 2003, Gaussian, Inc.),
 the Gaussian(R) 98 system (copyright 1998, Gaussian, Inc.),
 the Gaussian(R) 94 system (copyright 1995, Gaussian, Inc.),
 the Gaussian 92(TM) system (copyright 1992, Gaussian, Inc.),
 the Gaussian 90(TM) system (copyright 1990, Gaussian, Inc.),
 the Gaussian 88(TM) system (copyright 1988, Gaussian, Inc.),
 the Gaussian 86(TM) system (copyright 1986, Carnegie Mellon
 University), and the Gaussian 82(TM) system (copyright 1983,
 Carnegie Mellon University). Gaussian is a federally registered
 trademark of Gaussian, Inc.
  
 This software contains proprietary and confidential information,
 including trade secrets, belonging to Gaussian, Inc.
  
 This software is provided under written license and may be
 used, copied, transmitted, or stored only in accord with that
 written license.
  
 The following legend is applicable only to US Government
 contracts under FAR:
  
                    RESTRICTED RIGHTS LEGEND
  
 Use, reproduction and disclosure by the US Government is
 subject to restrictions as set forth in subparagraphs (a)
 and (c) of the Commercial Computer Software - Restricted
 Rights clause in FAR 52.227-19.
  
 Gaussian, Inc.
 340 Quinnipiac St., Bldg. 40, Wallingford CT 06492
  
  
 ---------------------------------------------------------------
 Warning -- This program may not be used in any manner that
 competes with the business of Gaussian, Inc. or will provide
 assistance to any competitor of Gaussian, Inc.  The licensee
 of this program is prohibited from giving any competitor of
 Gaussian, Inc. access to this program.  By using this program,
 the user acknowledges that Gaussian, Inc. is engaged in the
 business of creating and licensing software in the field of
 computational chemistry and represents and warrants to the
 licensee that it is not a competitor of Gaussian, Inc. and that
 it will not use this program in any manner prohibited above.
 ---------------------------------------------------------------
  

 Cite this work as:
 Gaussian 16, Revision B.01,
 M. J. Frisch, G. W. Trucks, H. B. Schlegel, G. E. Scuseria, 
 M. A. Robb, J. R. Cheeseman, G. Scalmani, V. Barone, 
 G. A. Petersson, H. Nakatsuji, X. Li, M. Caricato, A. V. Marenich, 
 J. Bloino, B. G. Janesko, R. Gomperts, B. Mennucci, H. P. Hratchian, 
 J. V. Ortiz, A. F. Izmaylov, J. L. Sonnenberg, D. Williams-Young, 
 F. Ding, F. Lipparini, F. Egidi, J. Goings, B. Peng, A. Petrone, 
 T. Henderson, D. Ranasinghe, V. G. Zakrzewski, J. Gao, N. Rega, 
 G. Zheng, W. Liang, M. Hada, M. Ehara, K. Toyota, R. Fukuda, 
 J. Hasegawa, M. Ishida, T. Nakajima, Y. Honda, O. Kitao, H. Nakai, 
 T. Vreven, K. Throssell, J. A. Montgomery, Jr., J. E. Peralta, 
 F. Ogliaro, M. J. Bearpark, J. J. Heyd, E. N. Brothers, K. N. Kudin, 
 V. N. Staroverov, T. A. Keith, R. Kobayashi, J. Normand, 
 K. Raghavachari, A. P. Rendell, J. C. Burant, S. S. Iyengar, 
 J. Tomasi, M. Cossi, J. M. Millam, M. Klene, C. Adamo, R. Cammi, 
 J. W. Ochterski, R. L. Martin, K. Morokuma, O. Farkas, 
 J. B. Foresman, and D. J. Fox, Gaussian, Inc., Wallingford CT, 2016.
 
 ******************************************
 Gaussian 16:  ES64L-G16RevB.01 20-Dec-2017
                 6-Jul-2024 
 ******************************************
 %nproc=16
 Will use up to   16 processors via shared memory.
 %mem=60GB
 ----------------------------------------------------------------------
 #P PBE1PBE/def2TZVP opt freq EmpiricalDispersion=GD3 Int=(grid=99590) 
 scrf=(iefpcm, solvent=water)
 ----------------------------------------------------------------------
 1/18=20,19=15,26=6,38=1/1,3;
 2/9=110,12=2,17=6,18=5,40=1/2;
 3/5=44,7=101,11=2,25=1,30=1,70=2201,71=1,72=1,74=-13,75=99590,124=31/1,2,3;
 4//1;
 5/5=2,38=5,53=1/2;
 6/7=2,8=2,9=2,10=2,28=1/1;
 7//1,2,3,16;
 1/18=20,19=15,26=6/3(2);
 2/9=110/2;
 99//99;
 2/9=110/2;
 3/5=44,7=101,11=2,25=1,30=1,70=2205,71=1,72=1,74=-13,75=99590,124=31/1,2,3;
 4/5=5,16=3,69=1/1;
 5/5=2,38=5,53=1/2;
 7//1,2,3,16;
 1/18=20,19=15,26=6/3(-5);
 2/9=110/2;
 6/7=2,8=2,9=2,10=2,19=2,28=1/1;
 99/9=1/99;
 Leave Link    1 at Sat Jul  6 19:55:27 2024, MaxMem=  8053063680 cpu:               0.3 elap:               0.0
 (Enter /share/apps/g16.b01_avx2/g16/l101.exe)
 -------------
 TFP-CF3_inter
 -------------
 Symbolic Z-matrix:
 Charge =  0 Multiplicity = 1
 H                     3.30955  -1.95855   0.46609 
 O                     3.76373   0.45801   1.49763 
 C                     3.61096   0.37358   0.27584 
 N                     3.89773  -1.18341   0.16728 
 H                     4.14326  -1.34959  -0.80605 
 C                     5.08845  -1.09874   1.02559 
 H                     5.7707   -0.35359   0.62374 
 H                     4.7618   -0.80771   2.02207 
 H                     5.58753  -2.06539   1.06551 
 C                     4.06434   1.45931  -0.67818 
 H                     3.48923   2.35385  -0.44201 
 H                     5.12221   1.67738  -0.52451 
 H                     3.89003   1.19366  -1.72067 
 O                     2.06773   0.25536  -0.97653 
 C                     0.78615   0.16026  -0.64712 
 C                     0.14021  -1.06987  -0.56986 
 C                     0.0114    1.28938  -0.3902 
 C                    -1.20446  -1.17329  -0.27231 
 C                    -1.33294   1.18869  -0.088 
 C                    -1.97062  -0.04543  -0.00102 
 F                     0.84222  -2.18149  -0.79532 
 F                     0.57078   2.49133  -0.45431 
 F                    -1.74225  -2.38851  -0.25787 
 F                    -2.00656   2.31782   0.10576 
 C                    -3.43989  -0.14933   0.30746 
 F                    -3.85692   0.83688   1.1017 
 F                    -4.18189  -0.09603  -0.8102 
 F                    -3.74255  -1.2925    0.92259 
 
 Add virtual bond connecting atoms O14        and C3         Dist= 3.76D+00.
 ITRead=  0  0  0  0  0  0  0  0  0  0  0  0  0  0  0  0  0  0  0  0
 ITRead=  0  0  0  0  0  0  0  0
 MicOpt= -1 -1 -1 -1 -1 -1 -1 -1 -1 -1 -1 -1 -1 -1 -1 -1 -1 -1 -1 -1
 MicOpt= -1 -1 -1 -1 -1 -1 -1 -1
 NAtoms=     28 NQM=       28 NQMF=       0 NMMI=      0 NMMIF=      0
                NMic=       0 NMicF=      0.
                    Isotopes and Nuclear Properties:
 (Nuclear quadrupole moments (NQMom) in fm**2, nuclear magnetic moments (NMagM)
  in nuclear magnetons)

  Atom         1           2           3           4           5           6           7           8           9          10
 IAtWgt=           1          16          12          14           1          12           1           1           1          12
 AtmWgt=   1.0078250  15.9949146  12.0000000  14.0030740   1.0078250  12.0000000   1.0078250   1.0078250   1.0078250  12.0000000
 NucSpn=           1           0           0           2           1           0           1           1           1           0
 AtZEff=  -0.0000000  -0.0000000  -0.0000000  -0.0000000  -0.0000000  -0.0000000  -0.0000000  -0.0000000  -0.0000000  -0.0000000
 NQMom=    0.0000000   0.0000000   0.0000000   2.0440000   0.0000000   0.0000000   0.0000000   0.0000000   0.0000000   0.0000000
 NMagM=    2.7928460   0.0000000   0.0000000   0.4037610   2.7928460   0.0000000   2.7928460   2.7928460   2.7928460   0.0000000
 AtZNuc=   1.0000000   8.0000000   6.0000000   7.0000000   1.0000000   6.0000000   1.0000000   1.0000000   1.0000000   6.0000000

  Atom        11          12          13          14          15          16          17          18          19          20
 IAtWgt=           1           1           1          16          12          12          12          12          12          12
 AtmWgt=   1.0078250   1.0078250   1.0078250  15.9949146  12.0000000  12.0000000  12.0000000  12.0000000  12.0000000  12.0000000
 NucSpn=           1           1           1           0           0           0           0           0           0           0
 AtZEff=  -0.0000000  -0.0000000  -0.0000000  -0.0000000  -0.0000000  -0.0000000  -0.0000000  -0.0000000  -0.0000000  -0.0000000
 NQMom=    0.0000000   0.0000000   0.0000000   0.0000000   0.0000000   0.0000000   0.0000000   0.0000000   0.0000000   0.0000000
 NMagM=    2.7928460   2.7928460   2.7928460   0.0000000   0.0000000   0.0000000   0.0000000   0.0000000   0.0000000   0.0000000
 AtZNuc=   1.0000000   1.0000000   1.0000000   8.0000000   6.0000000   6.0000000   6.0000000   6.0000000   6.0000000   6.0000000

  Atom        21          22          23          24          25          26          27          28
 IAtWgt=          19          19          19          19          12          19          19          19
 AtmWgt=  18.9984032  18.9984032  18.9984032  18.9984032  12.0000000  18.9984032  18.9984032  18.9984032
 NucSpn=           1           1           1           1           0           1           1           1
 AtZEff=  -0.0000000  -0.0000000  -0.0000000  -0.0000000  -0.0000000  -0.0000000  -0.0000000  -0.0000000
 NQMom=    0.0000000   0.0000000   0.0000000   0.0000000   0.0000000   0.0000000   0.0000000   0.0000000
 NMagM=    2.6288670   2.6288670   2.6288670   2.6288670   0.0000000   2.6288670   2.6288670   2.6288670
 AtZNuc=   9.0000000   9.0000000   9.0000000   9.0000000   6.0000000   9.0000000   9.0000000   9.0000000
 Leave Link  101 at Sat Jul  6 19:55:27 2024, MaxMem=  8053063680 cpu:               5.4 elap:               0.3
 (Enter /share/apps/g16.b01_avx2/g16/l103.exe)

 GradGradGradGradGradGradGradGradGradGradGradGradGradGradGradGradGradGrad
 Berny optimization.
 Initialization pass.
                           ----------------------------
                           !    Initial Parameters    !
                           ! (Angstroms and Degrees)  !
 --------------------------                            --------------------------
 ! Name  Definition              Value          Derivative Info.                !
 --------------------------------------------------------------------------------
 ! R1    R(1,4)                  1.0179         estimate D2E/DX2                !
 ! R2    R(2,3)                  1.2342         estimate D2E/DX2                !
 ! R3    R(3,4)                  1.5869         estimate D2E/DX2                !
 ! R4    R(3,10)                 1.5148         estimate D2E/DX2                !
 ! R5    R(3,14)                 1.991          estimate D2E/DX2                !
 ! R6    R(4,5)                  1.0175         estimate D2E/DX2                !
 ! R7    R(4,6)                  1.4703         estimate D2E/DX2                !
 ! R8    R(6,7)                  1.0873         estimate D2E/DX2                !
 ! R9    R(6,8)                  1.0883         estimate D2E/DX2                !
 ! R10   R(6,9)                  1.0886         estimate D2E/DX2                !
 ! R11   R(10,11)                1.0894         estimate D2E/DX2                !
 ! R12   R(10,12)                1.091          estimate D2E/DX2                !
 ! R13   R(10,13)                1.0898         estimate D2E/DX2                !
 ! R14   R(14,15)                1.3266         estimate D2E/DX2                !
 ! R15   R(15,16)                1.3915         estimate D2E/DX2                !
 ! R16   R(15,17)                1.3933         estimate D2E/DX2                !
 ! R17   R(16,18)                1.3811         estimate D2E/DX2                !
 ! R18   R(16,21)                1.3339         estimate D2E/DX2                !
 ! R19   R(17,19)                1.3816         estimate D2E/DX2                !
 ! R20   R(17,22)                1.3273         estimate D2E/DX2                !
 ! R21   R(18,20)                1.3902         estimate D2E/DX2                !
 ! R22   R(18,23)                1.329          estimate D2E/DX2                !
 ! R23   R(19,20)                1.3919         estimate D2E/DX2                !
 ! R24   R(19,24)                1.329          estimate D2E/DX2                !
 ! R25   R(20,25)                1.5049         estimate D2E/DX2                !
 ! R26   R(25,26)                1.3332         estimate D2E/DX2                !
 ! R27   R(25,27)                1.3426         estimate D2E/DX2                !
 ! R28   R(25,28)                1.333          estimate D2E/DX2                !
 ! A1    A(2,3,4)               96.4581         estimate D2E/DX2                !
 ! A2    A(2,3,10)             122.5068         estimate D2E/DX2                !
 ! A3    A(2,3,14)             136.2785         estimate D2E/DX2                !
 ! A4    A(4,3,10)             127.3069         estimate D2E/DX2                !
 ! A5    A(4,3,14)              92.2225         estimate D2E/DX2                !
 ! A6    A(10,3,14)             83.0148         estimate D2E/DX2                !
 ! A7    A(1,4,3)              128.5114         estimate D2E/DX2                !
 ! A8    A(1,4,5)              107.2101         estimate D2E/DX2                !
 ! A9    A(1,4,6)              109.9053         estimate D2E/DX2                !
 ! A10   A(3,4,5)              105.6224         estimate D2E/DX2                !
 ! A11   A(3,4,6)               92.8609         estimate D2E/DX2                !
 ! A12   A(5,4,6)              111.865          estimate D2E/DX2                !
 ! A13   A(4,6,7)              109.3837         estimate D2E/DX2                !
 ! A14   A(4,6,8)              107.8696         estimate D2E/DX2                !
 ! A15   A(4,6,9)              109.9723         estimate D2E/DX2                !
 ! A16   A(7,6,8)              110.0889         estimate D2E/DX2                !
 ! A17   A(7,6,9)              109.5372         estimate D2E/DX2                !
 ! A18   A(8,6,9)              109.9668         estimate D2E/DX2                !
 ! A19   A(3,10,11)            107.0989         estimate D2E/DX2                !
 ! A20   A(3,10,12)            110.1679         estimate D2E/DX2                !
 ! A21   A(3,10,13)            112.3253         estimate D2E/DX2                !
 ! A22   A(11,10,12)           108.4955         estimate D2E/DX2                !
 ! A23   A(11,10,13)           108.851          estimate D2E/DX2                !
 ! A24   A(12,10,13)           109.788          estimate D2E/DX2                !
 ! A25   A(3,14,15)            126.6448         estimate D2E/DX2                !
 ! A26   A(14,15,16)           121.7073         estimate D2E/DX2                !
 ! A27   A(14,15,17)           121.6595         estimate D2E/DX2                !
 ! A28   A(16,15,17)           116.6182         estimate D2E/DX2                !
 ! A29   A(15,16,18)           122.0131         estimate D2E/DX2                !
 ! A30   A(15,16,21)           118.8811         estimate D2E/DX2                !
 ! A31   A(18,16,21)           119.1053         estimate D2E/DX2                !
 ! A32   A(15,17,19)           121.4912         estimate D2E/DX2                !
 ! A33   A(15,17,22)           119.3817         estimate D2E/DX2                !
 ! A34   A(19,17,22)           119.1207         estimate D2E/DX2                !
 ! A35   A(16,18,20)           121.1901         estimate D2E/DX2                !
 ! A36   A(16,18,23)           117.698          estimate D2E/DX2                !
 ! A37   A(20,18,23)           121.1116         estimate D2E/DX2                !
 ! A38   A(17,19,20)           121.6074         estimate D2E/DX2                !
 ! A39   A(17,19,24)           117.5928         estimate D2E/DX2                !
 ! A40   A(20,19,24)           120.7965         estimate D2E/DX2                !
 ! A41   A(18,20,19)           117.0429         estimate D2E/DX2                !
 ! A42   A(18,20,25)           121.4704         estimate D2E/DX2                !
 ! A43   A(19,20,25)           121.4219         estimate D2E/DX2                !
 ! A44   A(20,25,26)           112.1137         estimate D2E/DX2                !
 ! A45   A(20,25,27)           111.4816         estimate D2E/DX2                !
 ! A46   A(20,25,28)           112.0541         estimate D2E/DX2                !
 ! A47   A(26,25,27)           107.0796         estimate D2E/DX2                !
 ! A48   A(26,25,28)           106.7658         estimate D2E/DX2                !
 ! A49   A(27,25,28)           107.0209         estimate D2E/DX2                !
 ! D1    D(2,3,4,1)             72.252          estimate D2E/DX2                !
 ! D2    D(2,3,4,5)           -159.7856         estimate D2E/DX2                !
 ! D3    D(2,3,4,6)            -46.1347         estimate D2E/DX2                !
 ! D4    D(10,3,4,1)          -147.734          estimate D2E/DX2                !
 ! D5    D(10,3,4,5)           -19.7716         estimate D2E/DX2                !
 ! D6    D(10,3,4,6)            93.8793         estimate D2E/DX2                !
 ! D7    D(14,3,4,1)           -64.8245         estimate D2E/DX2                !
 ! D8    D(14,3,4,5)            63.1379         estimate D2E/DX2                !
 ! D9    D(14,3,4,6)           176.7888         estimate D2E/DX2                !
 ! D10   D(2,3,10,11)          -63.1982         estimate D2E/DX2                !
 ! D11   D(2,3,10,12)           54.6135         estimate D2E/DX2                !
 ! D12   D(2,3,10,13)          177.3452         estimate D2E/DX2                !
 ! D13   D(4,3,10,11)          166.0151         estimate D2E/DX2                !
 ! D14   D(4,3,10,12)          -76.1733         estimate D2E/DX2                !
 ! D15   D(4,3,10,13)           46.5584         estimate D2E/DX2                !
 ! D16   D(14,3,10,11)          78.5506         estimate D2E/DX2                !
 ! D17   D(14,3,10,12)        -163.6377         estimate D2E/DX2                !
 ! D18   D(14,3,10,13)         -40.906          estimate D2E/DX2                !
 ! D19   D(2,3,14,15)           -4.7122         estimate D2E/DX2                !
 ! D20   D(4,3,14,15)           97.0261         estimate D2E/DX2                !
 ! D21   D(10,3,14,15)        -135.6499         estimate D2E/DX2                !
 ! D22   D(1,4,6,7)            172.8049         estimate D2E/DX2                !
 ! D23   D(1,4,6,8)            -67.4589         estimate D2E/DX2                !
 ! D24   D(1,4,6,9)             52.4692         estimate D2E/DX2                !
 ! D25   D(3,4,6,7)            -54.261          estimate D2E/DX2                !
 ! D26   D(3,4,6,8)             65.4752         estimate D2E/DX2                !
 ! D27   D(3,4,6,9)           -174.5967         estimate D2E/DX2                !
 ! D28   D(5,4,6,7)             53.8335         estimate D2E/DX2                !
 ! D29   D(5,4,6,8)            173.5697         estimate D2E/DX2                !
 ! D30   D(5,4,6,9)            -66.5022         estimate D2E/DX2                !
 ! D31   D(3,14,15,16)         -95.3522         estimate D2E/DX2                !
 ! D32   D(3,14,15,17)          86.1075         estimate D2E/DX2                !
 ! D33   D(14,15,16,18)       -177.7433         estimate D2E/DX2                !
 ! D34   D(14,15,16,21)          2.0049         estimate D2E/DX2                !
 ! D35   D(17,15,16,18)          0.867          estimate D2E/DX2                !
 ! D36   D(17,15,16,21)       -179.3848         estimate D2E/DX2                !
 ! D37   D(14,15,17,19)        177.9646         estimate D2E/DX2                !
 ! D38   D(14,15,17,22)         -1.1091         estimate D2E/DX2                !
 ! D39   D(16,15,17,19)         -0.6464         estimate D2E/DX2                !
 ! D40   D(16,15,17,22)       -179.7201         estimate D2E/DX2                !
 ! D41   D(15,16,18,20)         -1.677          estimate D2E/DX2                !
 ! D42   D(15,16,18,23)        178.1375         estimate D2E/DX2                !
 ! D43   D(21,16,18,20)        178.5753         estimate D2E/DX2                !
 ! D44   D(21,16,18,23)         -1.6102         estimate D2E/DX2                !
 ! D45   D(15,17,19,20)          1.2374         estimate D2E/DX2                !
 ! D46   D(15,17,19,24)       -178.1124         estimate D2E/DX2                !
 ! D47   D(22,17,19,20)       -179.6864         estimate D2E/DX2                !
 ! D48   D(22,17,19,24)          0.9638         estimate D2E/DX2                !
 ! D49   D(16,18,20,19)          2.1327         estimate D2E/DX2                !
 ! D50   D(16,18,20,25)        179.244          estimate D2E/DX2                !
 ! D51   D(23,18,20,19)       -177.6754         estimate D2E/DX2                !
 ! D52   D(23,18,20,25)         -0.5641         estimate D2E/DX2                !
 ! D53   D(17,19,20,18)         -1.9264         estimate D2E/DX2                !
 ! D54   D(17,19,20,25)       -179.0392         estimate D2E/DX2                !
 ! D55   D(24,19,20,18)        177.4028         estimate D2E/DX2                !
 ! D56   D(24,19,20,25)          0.2899         estimate D2E/DX2                !
 ! D57   D(18,20,25,26)        151.1764         estimate D2E/DX2                !
 ! D58   D(18,20,25,27)        -88.7841         estimate D2E/DX2                !
 ! D59   D(18,20,25,28)         31.1392         estimate D2E/DX2                !
 ! D60   D(19,20,25,26)        -31.8387         estimate D2E/DX2                !
 ! D61   D(19,20,25,27)         88.2008         estimate D2E/DX2                !
 ! D62   D(19,20,25,28)       -151.8759         estimate D2E/DX2                !
 --------------------------------------------------------------------------------
 Trust Radius=3.00D-01 FncErr=5.00D-06 GrdErr=5.00D-06 EigMax=2.50D+02 EigMin=1.00D-04
 Number of steps in this run=    149 maximum allowed number of steps=    168.
 GradGradGradGradGradGradGradGradGradGradGradGradGradGradGradGradGradGrad

 Leave Link  103 at Sat Jul  6 19:55:27 2024, MaxMem=  8053063680 cpu:               0.1 elap:               0.0
 (Enter /share/apps/g16.b01_avx2/g16/l202.exe)
                          Input orientation:                          
 ---------------------------------------------------------------------
 Center     Atomic      Atomic             Coordinates (Angstroms)
 Number     Number       Type             X           Y           Z
 ---------------------------------------------------------------------
      1          1           0        3.309545   -1.958555    0.466085
      2          8           0        3.763731    0.458014    1.497625
      3          6           0        3.610960    0.373581    0.275842
      4          7           0        3.897727   -1.183406    0.167283
      5          1           0        4.143255   -1.349587   -0.806048
      6          6           0        5.088445   -1.098735    1.025586
      7          1           0        5.770700   -0.353592    0.623742
      8          1           0        4.761800   -0.807711    2.022066
      9          1           0        5.587534   -2.065387    1.065514
     10          6           0        4.064336    1.459315   -0.678182
     11          1           0        3.489233    2.353848   -0.442013
     12          1           0        5.122208    1.677384   -0.524511
     13          1           0        3.890030    1.193655   -1.720671
     14          8           0        2.067725    0.255362   -0.976526
     15          6           0        0.786150    0.160255   -0.647120
     16          6           0        0.140206   -1.069866   -0.569856
     17          6           0        0.011398    1.289376   -0.390202
     18          6           0       -1.204462   -1.173286   -0.272307
     19          6           0       -1.332938    1.188694   -0.087996
     20          6           0       -1.970624   -0.045432   -0.001016
     21          9           0        0.842224   -2.181491   -0.795315
     22          9           0        0.570780    2.491326   -0.454313
     23          9           0       -1.742254   -2.388508   -0.257872
     24          9           0       -2.006561    2.317817    0.105758
     25          6           0       -3.439892   -0.149333    0.307455
     26          9           0       -3.856917    0.836876    1.101702
     27          9           0       -4.181892   -0.096034   -0.810197
     28          9           0       -3.742547   -1.292495    0.922587
 ---------------------------------------------------------------------
                    Distance matrix (angstroms):
                    1          2          3          4          5
     1  H    0.000000
     2  O    2.666489   0.000000
     3  C    2.359216   1.234189   0.000000
     4  N    1.017888   2.117080   1.586893   0.000000
     5  H    1.638364   2.952689   2.103124   1.017483   0.000000
     6  C    2.053489   2.097894   2.216482   1.470259   2.076341
     7  H    2.942455   2.334588   2.305274   2.098803   2.384299
     8  H    2.419620   1.695064   2.401912   2.080382   2.945243
     9  H    2.357957   3.143331   3.237127   2.107168   2.470031
    10  C    3.682511   2.413940   1.514771   2.779666   2.812918
    11  H    4.410640   2.726120   2.109879   3.612517   3.778320
    12  H    4.181755   2.724217   2.150427   3.187797   3.193769
    13  H    3.880115   3.303718   2.176343   3.035597   2.714542
    14  O    2.919704   3.006481   1.990974   2.593696   2.629211
    15  C    3.477945   3.681655   2.979416   3.485769   3.684432
    16  C    3.450747   4.442840   3.852905   3.830826   4.019756
    17  C    4.707447   4.281945   3.773479   4.639935   4.920295
    18  C    4.640919   5.520574   5.087392   5.121101   5.377178
    19  C    5.636030   5.387404   5.023835   5.749077   6.078418
    20  C    5.635460   5.948295   5.604133   5.980038   6.303048
    21  F    2.780019   4.556289   3.916845   3.355424   3.404260
    22  F    5.305601   4.259032   3.776330   4.995860   5.257272
    23  F    5.121489   6.442075   6.047387   5.782942   6.001589
    24  F    6.832143   6.220324   5.946892   6.864617   7.218136
    25  C    6.989517   7.326497   7.070287   7.411451   7.757875
    26  F    7.718589   7.640325   7.527674   8.067787   8.510164
    27  F    7.824290   8.292523   7.882168   8.210852   8.418996
    28  F    7.098171   7.729111   7.567573   7.678292   8.073247
                    6          7          8          9         10
     6  C    0.000000
     7  H    1.087285   0.000000
     8  H    1.088285   1.783091   0.000000
     9  H    1.088623   1.777345   1.782857   0.000000
    10  C    3.239637   2.809504   3.594051   4.217123   0.000000
    11  H    4.078193   3.697453   4.205540   5.119096   1.089362
    12  H    3.179745   2.421547   3.576401   4.093048   1.090991
    13  H    3.772689   3.380409   4.332844   4.611475   1.089835
    14  O    3.868692   4.079670   4.168899   4.684534   2.350525
    15  C    4.784636   5.169610   4.885418   5.562363   3.526333
    16  C    5.199167   5.800016   5.305273   5.773983   4.669827
    17  C    5.786531   6.074289   5.725656   6.668346   4.066709
    18  C    6.425789   7.080091   6.402662   6.979743   5.903859
    19  C    6.906993   7.303895   6.751580   7.733858   5.436187
    20  C    7.210674   7.772604   7.071030   7.895787   6.256482
    21  F    4.745359   5.444705   5.018763   5.098444   4.863249
    22  F    5.957175   6.024527   5.880540   6.945598   3.649671
    23  F    7.068892   7.833428   7.071051   7.455303   6.978459
    24  F    7.928305   8.239570   7.697524   8.820651   6.181212
    25  C    8.611017   9.218284   8.404827   9.259608   7.737743
    26  F    9.152698   9.712706   8.822359   9.880389   8.142584
    27  F    9.503402  10.058658   9.408391  10.140923   8.392664
    28  F    8.833718   9.564137   8.588818   9.363130   8.431035
                   11         12         13         14         15
    11  H    0.000000
    12  H    1.769469   0.000000
    13  H    1.772471   1.784112   0.000000
    14  O    2.590373   3.399460   2.180583   0.000000
    15  C    3.487202   4.595445   3.443037   1.326645   0.000000
    16  C    4.791048   5.689445   4.528696   2.374224   1.391550
    17  C    3.637461   5.127277   4.101597   2.375172   1.393256
    18  C    5.873691   6.943823   5.801209   3.639254   2.425150
    19  C    4.973554   6.488318   5.472207   3.636633   2.420917
    20  C    5.980055   7.317814   6.232160   4.165376   2.838936
    21  F    5.263153   5.769100   4.640800   2.733668   2.347100
    22  F    2.921715   4.624168   3.782200   2.741001   2.348925
    23  F    7.063448   7.982694   6.833323   4.692809   3.611168
    24  F    5.523142   7.185175   6.274502   4.693066   3.608481
    25  C    7.405429   8.794238   7.722997   5.669765   4.343557
    26  F    7.658340   9.163826   8.252774   6.305440   5.007421
    27  F    8.061243   9.475912   8.224852   6.261698   4.977321
    28  F    8.213196   9.460346   8.451272   6.305692   5.008349
                   16         17         18         19         20
    16  C    0.000000
    17  C    2.369576   0.000000
    18  C    1.381073   2.748985   0.000000
    19  C    2.739240   1.381559   2.372641   0.000000
    20  C    2.414259   2.421072   1.390201   1.391861   0.000000
    21  F    1.333931   3.591839   2.340713   4.073055   3.620190
    22  F    3.588988   1.327291   4.076026   2.335633   3.619303
    23  F    2.319441   4.076719   1.328982   3.604549   2.368150
    24  F    4.067119   2.318583   3.601957   1.328995   2.365933
    25  C    3.799231   3.803684   2.526213   2.527044   1.504891
    26  F    4.733578   4.170659   3.600579   2.812406   2.356386
    27  F    4.436963   4.436151   3.211680   3.207591   2.355216
    28  F    4.165660   4.741474   2.807821   3.603303   2.355402
                   21         22         23         24         25
    21  F    0.000000
    22  F    4.693100   0.000000
    23  F    2.647872   5.403841   0.000000
    24  F    5.401044   2.643193   4.727746   0.000000
    25  C    4.866445   4.861981   2.866265   2.860411   0.000000
    26  F    5.898401   4.976232   4.089418   2.570780   1.333172
    27  F    5.439770   5.423004   3.392983   3.376050   1.342591
    28  F    4.976106   5.900673   2.568248   4.088424   1.332969
                   26         27         28
    26  F    0.000000
    27  F    2.152043   0.000000
    28  F    2.139949   2.151066   0.000000
 Stoichiometry    C10H8F7NO2
 Framework group  C1[X(C10H8F7NO2)]
 Deg. of freedom    78
 Full point group                 C1      NOp   1
 Largest Abelian subgroup         C1      NOp   1
 Largest concise Abelian subgroup C1      NOp   1
                         Standard orientation:                         
 ---------------------------------------------------------------------
 Center     Atomic      Atomic             Coordinates (Angstroms)
 Number     Number       Type             X           Y           Z
 ---------------------------------------------------------------------
      1          1           0        3.198505   -1.963081    0.409534
      2          8           0        3.660566    0.427847    1.495870
      3          6           0        3.499486    0.372898    0.273473
      4          7           0        3.784935   -1.181082    0.125503
      5          1           0        4.023798   -1.323821   -0.853191
      6          6           0        4.981474   -1.117355    0.977497
      7          1           0        5.661265   -0.362890    0.589096
      8          1           0        4.661699   -0.850349    1.982891
      9          1           0        5.480465   -2.084791    0.990745
     10          6           0        3.946787    1.481202   -0.657180
     11          1           0        3.373629    2.369906   -0.395638
     12          1           0        5.005757    1.695288   -0.505483
     13          1           0        3.765321    1.240765   -1.704558
     14          8           0        1.947754    0.285197   -0.970879
     15          6           0        0.668406    0.182449   -0.635171
     16          6           0        0.022546   -1.049043   -0.583175
     17          6           0       -0.104169    1.305214   -0.345883
     18          6           0       -1.320113   -1.159322   -0.279086
     19          6           0       -1.446462    1.197560   -0.037075
     20          6           0       -2.084001   -0.038171    0.024482
     21          9           0        0.722608   -2.155060   -0.840100
     22          9           0        0.455211    2.508244   -0.384821
     23          9           0       -1.858244   -2.374428   -0.290275
     24          9           0       -2.118339    2.321828    0.188384
     25          6           0       -3.551183   -0.149168    0.340323
     26          9           0       -3.962449    0.817711    1.160903
     27          9           0       -4.300722   -0.068811   -0.770661
     28          9           0       -3.850084   -1.306752    0.929784
 ---------------------------------------------------------------------
 Rotational constants (GHZ):           0.6474778           0.1821287           0.1564414
 Leave Link  202 at Sat Jul  6 19:55:27 2024, MaxMem=  8053063680 cpu:               0.0 elap:               0.0
 (Enter /share/apps/g16.b01_avx2/g16/l301.exe)
 Standard basis: def2TZVP (5D, 7F)
 Ernie: Thresh=  0.10000D-02 Tol=  0.10000D-05 Strict=F.
 There are   768 symmetry adapted cartesian basis functions of A   symmetry.
 There are   668 symmetry adapted basis functions of A   symmetry.
   668 basis functions,  1084 primitive gaussians,   768 cartesian basis functions
    77 alpha electrons       77 beta electrons
       nuclear repulsion energy      1746.9283154150 Hartrees.
 IExCor= 1009 DFT=T Ex+Corr=PBE1PBE ExCW=0 ScaHFX=  0.250000
 ScaDFX=  0.750000  0.750000  1.000000  1.000000 ScalE2=  1.000000  1.000000
 IRadAn=  99590 IRanWt=     -1 IRanGd=            0 ICorTp=0 IEmpDi=131
 NAtoms=   28 NActive=   28 NUniq=   28 SFac= 1.00D+00 NAtFMM=   60 NAOKFM=F Big=F
 Integral buffers will be    131072 words long.
 Raffenetti 2 integral format.
 Two-electron integral symmetry is turned on.
 R6Disp:  Grimme-D3 Dispersion energy=       -0.0169127847 Hartrees.
 Nuclear repulsion after empirical dispersion term =     1746.9114026303 Hartrees.
 ------------------------------------------------------------------------------
 Polarizable Continuum Model (PCM)
 =================================
 Model                : PCM.
 Atomic radii         : UFF (Universal Force Field).
 Polarization charges : Total charges.
 Charge compensation  : None.
 Solution method      : On-the-fly selection.
 Cavity type          : Scaled VdW (van der Waals Surface) (Alpha=1.100).
 Cavity algorithm     : GePol (No added spheres)
                        Default sphere list used, NSphG=   28.
                        Lebedev-Laikov grids with approx.  5.0 points / Ang**2.
                        Smoothing algorithm: York/Karplus (Gamma=1.0000).
                        Polarization charges: spherical gaussians, with
                                              point-specific exponents (IZeta= 3).
                        Self-potential: point-specific (ISelfS= 7).
                        Self-field    : sphere-specific E.n sum rule (ISelfD= 2).
 1st derivatives      : Analytical E(r).r(x)/FMM algorithm (CHGder, D1EAlg=3).
                        Cavity 1st derivative terms included.
 Solvent              : Water, Eps=  78.355300 Eps(inf)=   1.777849
 ------------------------------------------------------------------------------
 GePol: Number of generator spheres                  =      28
 GePol: Total number of spheres                      =      28
 GePol: Number of exposed spheres                    =      28 (100.00%)
 GePol: Number of points                             =    2431
 GePol: Average weight of points                     =       0.13
 GePol: Minimum weight of points                     =   0.82D-11
 GePol: Maximum weight of points                     =    0.20577
 GePol: Number of points with low weight             =     104
 GePol: Fraction of low-weight points (<1% of avg)   =       4.28%
 GePol: Cavity surface area                          =    307.338 Ang**2
 GePol: Cavity volume                                =    324.675 Ang**3
 Leave Link  301 at Sat Jul  6 19:55:27 2024, MaxMem=  8053063680 cpu:               0.5 elap:               0.0
 (Enter /share/apps/g16.b01_avx2/g16/l302.exe)
 NPDir=0 NMtPBC=     1 NCelOv=     1 NCel=       1 NClECP=     1 NCelD=      1
         NCelK=      1 NCelE2=     1 NClLst=     1 CellRange=     0.0.
 One-electron integrals computed using PRISM.
 One-electron integral symmetry used in STVInt
   1 Symmetry operations used in ECPInt.
 ECPInt:  NShTT=   31878 NPrTT=  101040 LenC2=   26534 LenP2D=   58999.
 LDataN:  DoStor=T MaxTD1= 6 Len=  172
 NBasis=   668 RedAO= T EigKep=  1.28D-05  NBF=   668
 NBsUse=   668 1.00D-06 EigRej= -1.00D+00 NBFU=   668
 Precomputing XC quadrature grid using
 IXCGrd= 4 IRadAn=       99590 IRanWt=          -1 IRanGd=           0 AccXCQ= 0.00D+00.
 Generated NRdTot=       0 NPtTot=           0 NUsed=           0 NTot=          32
 NSgBfM=   752   752   752   752   752 MxSgAt=    28 MxSgA2=    28.
 Leave Link  302 at Sat Jul  6 19:55:27 2024, MaxMem=  8053063680 cpu:               5.4 elap:               0.3
 (Enter /share/apps/g16.b01_avx2/g16/l303.exe)
 DipDrv:  MaxL=1.
 Leave Link  303 at Sat Jul  6 19:55:28 2024, MaxMem=  8053063680 cpu:               0.9 elap:               0.1
 (Enter /share/apps/g16.b01_avx2/g16/l401.exe)
 ExpMin= 9.52D-02 ExpMax= 3.55D+04 ExpMxC= 1.21D+03 IAcc=4 IRadAn=    199590 AccDes= 0.00D+00
 Harris functional with IExCor= 1009 and IRadAn=  199590 diagonalized for initial guess.
 HarFok:  IExCor= 1009 AccDes= 0.00D+00 IRadAn=    199590 IDoV= 1 UseB2=F ITyADJ=14
 ICtDFT=  3500011 ScaDFX=  1.000000  1.000000  1.000000  1.000000
 FoFCou: FMM=F IPFlag=           0 FMFlag=      100000 FMFlg1=           0
         NFxFlg=           0 DoJE=T BraDBF=F KetDBF=T FulRan=T
         wScrn=  0.000000 ICntrl=       500 IOpCl=  0 I1Cent=   200000004 NGrid=           0
         NMat0=    1 NMatS0=      1 NMatT0=    0 NMatD0=    1 NMtDS0=    0 NMtDT0=    0
 Petite list used in FoFCou.
 Harris En= -1289.19203898804    
 JPrj=0 DoOrth=F DoCkMO=F.
 Leave Link  401 at Sat Jul  6 19:55:30 2024, MaxMem=  8053063680 cpu:              43.6 elap:               2.7
 (Enter /share/apps/g16.b01_avx2/g16/l502.exe)
 Integral symmetry usage will be decided dynamically.
 Closed shell SCF:
 Using DIIS extrapolation, IDIIS=  1040.
 NGot=  8053063680 LenX=  8051865182 LenY=  8051274590
 Requested convergence on RMS density matrix=1.00D-08 within 128 cycles.
 Requested convergence on MAX density matrix=1.00D-06.
 Requested convergence on             energy=1.00D-06.
 No special actions if energy rises.
 Fock matrices will be formed incrementally for  20 cycles.

 Cycle   1  Pass 1  IDiag  1:
 FoFJK:  IHMeth= 1 ICntrl=       0 DoSepK=F KAlg= 0 I1Cent=           0 FoldK=F
 IRaf= 760000000 NMat=       1 IRICut=       1 DoRegI=T DoRafI=F ISym2E= 0 IDoP0=0 IntGTp=1.
 FoFCou: FMM=F IPFlag=           0 FMFlag=      100000 FMFlg1=           0
         NFxFlg=           0 DoJE=F BraDBF=F KetDBF=F FulRan=T
         wScrn=  0.000000 ICntrl=         0 IOpCl=  0 I1Cent=           0 NGrid=           0
         NMat0=    1 NMatS0=      1 NMatT0=    0 NMatD0=    1 NMtDS0=    0 NMtDT0=    0
 Symmetry not used in FoFCou.
 Inv3:  Mode=1 IEnd=    17729283.
 Iteration    1 A*A^-1 deviation from unit magnitude is 3.00D-15 for   1780.
 Iteration    1 A*A^-1 deviation from orthogonality  is 2.04D-15 for   2016    405.
 Iteration    1 A^-1*A deviation from unit magnitude is 2.89D-15 for   1365.
 Iteration    1 A^-1*A deviation from orthogonality  is 1.54D-14 for   1392   1343.
 E= -1288.74531331037    
 DIIS: error= 1.56D-02 at cycle   1 NSaved=   1.
 NSaved= 1 IEnMin= 1 EnMin= -1288.74531331037     IErMin= 1 ErrMin= 1.56D-02
 ErrMax= 1.56D-02  0.00D+00 EMaxC= 1.00D-01 BMatC= 4.80D-01 BMatP= 4.80D-01
 IDIUse=3 WtCom= 8.44D-01 WtEn= 1.56D-01
 Coeff-Com:  0.100D+01
 Coeff-En:   0.100D+01
 Coeff:      0.100D+01
 Gap=     0.230 Goal=   None    Shift=    0.000
 GapD=    0.230 DampG=1.000 DampE=0.500 DampFc=0.5000 IDamp=-1.
 Damping current iteration by 5.00D-01
 RMSDP=2.80D-03 MaxDP=3.33D-01              OVMax= 2.28D-01

 Cycle   2  Pass 1  IDiag  1:
 RMSU=  1.40D-03    CP:  1.00D+00
 E= -1288.86141191430     Delta-E=       -0.116098603937 Rises=F Damp=T
 DIIS: error= 4.60D-03 at cycle   2 NSaved=   2.
 NSaved= 2 IEnMin= 2 EnMin= -1288.86141191430     IErMin= 2 ErrMin= 4.60D-03
 ErrMax= 4.60D-03  0.00D+00 EMaxC= 1.00D-01 BMatC= 5.45D-02 BMatP= 4.80D-01
 IDIUse=3 WtCom= 9.54D-01 WtEn= 4.60D-02
 Coeff-Com:  0.134D+00 0.866D+00
 Coeff-En:   0.262D+00 0.738D+00
 Coeff:      0.140D+00 0.860D+00
 Gap=     0.256 Goal=   None    Shift=    0.000
 RMSDP=8.58D-04 MaxDP=1.22D-01 DE=-1.16D-01 OVMax= 1.64D-01

 Cycle   3  Pass 1  IDiag  1:
 RMSU=  6.07D-04    CP:  9.89D-01  5.72D-01
 E= -1289.04623044280     Delta-E=       -0.184818528496 Rises=F Damp=F
 DIIS: error= 4.48D-03 at cycle   3 NSaved=   3.
 NSaved= 3 IEnMin= 3 EnMin= -1289.04623044280     IErMin= 3 ErrMin= 4.48D-03
 ErrMax= 4.48D-03  0.00D+00 EMaxC= 1.00D-01 BMatC= 4.40D-02 BMatP= 5.45D-02
 IDIUse=3 WtCom= 9.55D-01 WtEn= 4.48D-02
 Coeff-Com: -0.151D-01 0.470D+00 0.545D+00
 Coeff-En:   0.000D+00 0.000D+00 0.100D+01
 Coeff:     -0.145D-01 0.449D+00 0.566D+00
 Gap=     0.201 Goal=   None    Shift=    0.000
 RMSDP=2.97D-04 MaxDP=2.44D-02 DE=-1.85D-01 OVMax= 4.68D-02

 Cycle   4  Pass 1  IDiag  1:
 RMSU=  2.70D-04    CP:  9.86D-01  6.34D-01  8.58D-01
 E= -1289.07520804117     Delta-E=       -0.028977598376 Rises=F Damp=F
 DIIS: error= 1.57D-03 at cycle   4 NSaved=   4.
 NSaved= 4 IEnMin= 4 EnMin= -1289.07520804117     IErMin= 4 ErrMin= 1.57D-03
 ErrMax= 1.57D-03  0.00D+00 EMaxC= 1.00D-01 BMatC= 5.22D-03 BMatP= 4.40D-02
 IDIUse=3 WtCom= 9.84D-01 WtEn= 1.57D-02
 Coeff-Com: -0.263D-01 0.106D+00 0.294D+00 0.627D+00
 Coeff-En:   0.000D+00 0.000D+00 0.851D-01 0.915D+00
 Coeff:     -0.259D-01 0.104D+00 0.291D+00 0.631D+00
 Gap=     0.199 Goal=   None    Shift=    0.000
 RMSDP=7.94D-05 MaxDP=6.95D-03 DE=-2.90D-02 OVMax= 1.32D-02

 Cycle   5  Pass 1  IDiag  1:
 RMSU=  6.39D-05    CP:  9.85D-01  6.28D-01  9.11D-01  8.80D-01
 E= -1289.07900043643     Delta-E=       -0.003792395252 Rises=F Damp=F
 DIIS: error= 4.97D-04 at cycle   5 NSaved=   5.
 NSaved= 5 IEnMin= 5 EnMin= -1289.07900043643     IErMin= 5 ErrMin= 4.97D-04
 ErrMax= 4.97D-04  0.00D+00 EMaxC= 1.00D-01 BMatC= 4.05D-04 BMatP= 5.22D-03
 IDIUse=3 WtCom= 9.95D-01 WtEn= 4.97D-03
 Coeff-Com: -0.133D-01 0.332D-01 0.126D+00 0.337D+00 0.517D+00
 Coeff-En:   0.000D+00 0.000D+00 0.000D+00 0.000D+00 0.100D+01
 Coeff:     -0.133D-01 0.330D-01 0.125D+00 0.335D+00 0.520D+00
 Gap=     0.200 Goal=   None    Shift=    0.000
 RMSDP=4.04D-05 MaxDP=3.29D-03 DE=-3.79D-03 OVMax= 5.16D-03

 Cycle   6  Pass 1  IDiag  1:
 RMSU=  2.21D-05    CP:  9.86D-01  6.24D-01  9.11D-01  8.30D-01  5.27D-01
 E= -1289.07922202211     Delta-E=       -0.000221585685 Rises=F Damp=F
 DIIS: error= 2.17D-04 at cycle   6 NSaved=   6.
 NSaved= 6 IEnMin= 6 EnMin= -1289.07922202211     IErMin= 6 ErrMin= 2.17D-04
 ErrMax= 2.17D-04  0.00D+00 EMaxC= 1.00D-01 BMatC= 6.29D-05 BMatP= 4.05D-04
 IDIUse=3 WtCom= 9.98D-01 WtEn= 2.17D-03
 Coeff-Com: -0.559D-02 0.998D-02 0.470D-01 0.143D+00 0.324D+00 0.481D+00
 Coeff-En:   0.000D+00 0.000D+00 0.000D+00 0.000D+00 0.125D+00 0.875D+00
 Coeff:     -0.557D-02 0.996D-02 0.469D-01 0.143D+00 0.324D+00 0.482D+00
 Gap=     0.199 Goal=   None    Shift=    0.000
 RMSDP=1.83D-05 MaxDP=1.55D-03 DE=-2.22D-04 OVMax= 2.75D-03

 Cycle   7  Pass 1  IDiag  1:
 RMSU=  9.28D-06    CP:  9.86D-01  6.32D-01  9.09D-01  8.25D-01  5.90D-01
                    CP:  5.42D-01
 E= -1289.07926483223     Delta-E=       -0.000042810114 Rises=F Damp=F
 DIIS: error= 5.56D-05 at cycle   7 NSaved=   7.
 NSaved= 7 IEnMin= 7 EnMin= -1289.07926483223     IErMin= 7 ErrMin= 5.56D-05
 ErrMax= 5.56D-05  0.00D+00 EMaxC= 1.00D-01 BMatC= 5.64D-06 BMatP= 6.29D-05
 IDIUse=1 WtCom= 1.00D+00 WtEn= 0.00D+00
 Coeff-Com: -0.169D-02 0.195D-02 0.121D-01 0.425D-01 0.126D+00 0.279D+00
 Coeff-Com:  0.540D+00
 Coeff:     -0.169D-02 0.195D-02 0.121D-01 0.425D-01 0.126D+00 0.279D+00
 Coeff:      0.540D+00
 Gap=     0.200 Goal=   None    Shift=    0.000
 RMSDP=5.49D-06 MaxDP=5.27D-04 DE=-4.28D-05 OVMax= 7.07D-04

 Cycle   8  Pass 1  IDiag  1:
 RMSU=  2.33D-06    CP:  9.86D-01  6.30D-01  9.10D-01  8.29D-01  5.89D-01
                    CP:  6.40D-01  7.61D-01
 E= -1289.07926864015     Delta-E=       -0.000003807923 Rises=F Damp=F
 DIIS: error= 1.47D-05 at cycle   8 NSaved=   8.
 NSaved= 8 IEnMin= 8 EnMin= -1289.07926864015     IErMin= 8 ErrMin= 1.47D-05
 ErrMax= 1.47D-05  0.00D+00 EMaxC= 1.00D-01 BMatC= 3.24D-07 BMatP= 5.64D-06
 IDIUse=1 WtCom= 1.00D+00 WtEn= 0.00D+00
 Coeff-Com: -0.140D-03-0.213D-03-0.938D-04 0.187D-02 0.172D-01 0.604D-01
 Coeff-Com:  0.238D+00 0.683D+00
 Coeff:     -0.140D-03-0.213D-03-0.938D-04 0.187D-02 0.172D-01 0.604D-01
 Coeff:      0.238D+00 0.683D+00
 Gap=     0.200 Goal=   None    Shift=    0.000
 RMSDP=1.05D-06 MaxDP=8.36D-05 DE=-3.81D-06 OVMax= 1.63D-04

 Cycle   9  Pass 1  IDiag  1:
 RMSU=  7.47D-07    CP:  9.86D-01  6.30D-01  9.10D-01  8.29D-01  5.90D-01
                    CP:  6.46D-01  8.23D-01  8.74D-01
 E= -1289.07926886357     Delta-E=       -0.000000223420 Rises=F Damp=F
 DIIS: error= 6.94D-06 at cycle   9 NSaved=   9.
 NSaved= 9 IEnMin= 9 EnMin= -1289.07926886357     IErMin= 9 ErrMin= 6.94D-06
 ErrMax= 6.94D-06  0.00D+00 EMaxC= 1.00D-01 BMatC= 2.83D-08 BMatP= 3.24D-07
 IDIUse=1 WtCom= 1.00D+00 WtEn= 0.00D+00
 Coeff-Com:  0.852D-04-0.254D-03-0.105D-02-0.278D-02-0.286D-02-0.210D-03
 Coeff-Com:  0.527D-01 0.290D+00 0.664D+00
 Coeff:      0.852D-04-0.254D-03-0.105D-02-0.278D-02-0.286D-02-0.210D-03
 Coeff:      0.527D-01 0.290D+00 0.664D+00
 Gap=     0.200 Goal=   None    Shift=    0.000
 RMSDP=2.87D-07 MaxDP=1.20D-05 DE=-2.23D-07 OVMax= 4.07D-05

 Cycle  10  Pass 1  IDiag  1:
 RMSU=  2.06D-07    CP:  9.86D-01  6.30D-01  9.10D-01  8.29D-01  5.91D-01
                    CP:  6.46D-01  8.36D-01  9.08D-01  8.60D-01
 E= -1289.07926888658     Delta-E=       -0.000000023017 Rises=F Damp=F
 DIIS: error= 1.75D-06 at cycle  10 NSaved=  10.
 NSaved=10 IEnMin=10 EnMin= -1289.07926888658     IErMin=10 ErrMin= 1.75D-06
 ErrMax= 1.75D-06  0.00D+00 EMaxC= 1.00D-01 BMatC= 4.46D-09 BMatP= 2.83D-08
 IDIUse=1 WtCom= 1.00D+00 WtEn= 0.00D+00
 Coeff-Com:  0.563D-04-0.119D-03-0.562D-03-0.174D-02-0.327D-02-0.574D-02
 Coeff-Com:  0.106D-01 0.103D+00 0.346D+00 0.552D+00
 Coeff:      0.563D-04-0.119D-03-0.562D-03-0.174D-02-0.327D-02-0.574D-02
 Coeff:      0.106D-01 0.103D+00 0.346D+00 0.552D+00
 Gap=     0.200 Goal=   None    Shift=    0.000
 RMSDP=1.45D-07 MaxDP=1.23D-05 DE=-2.30D-08 OVMax= 1.34D-05

 Cycle  11  Pass 1  IDiag  1:
 RMSU=  7.29D-08    CP:  9.86D-01  6.30D-01  9.10D-01  8.28D-01  5.90D-01
                    CP:  6.47D-01  8.41D-01  9.30D-01  8.92D-01  7.72D-01
 E= -1289.07926888976     Delta-E=       -0.000000003175 Rises=F Damp=F
 DIIS: error= 4.16D-07 at cycle  11 NSaved=  11.
 NSaved=11 IEnMin=11 EnMin= -1289.07926888976     IErMin=11 ErrMin= 4.16D-07
 ErrMax= 4.16D-07  0.00D+00 EMaxC= 1.00D-01 BMatC= 2.60D-10 BMatP= 4.46D-09
 IDIUse=1 WtCom= 1.00D+00 WtEn= 0.00D+00
 Coeff-Com:  0.670D-05-0.589D-05-0.400D-04-0.179D-03-0.518D-03-0.168D-02
 Coeff-Com: -0.224D-02-0.415D-02 0.282D-01 0.195D+00 0.785D+00
 Coeff:      0.670D-05-0.589D-05-0.400D-04-0.179D-03-0.518D-03-0.168D-02
 Coeff:     -0.224D-02-0.415D-02 0.282D-01 0.195D+00 0.785D+00
 Gap=     0.200 Goal=   None    Shift=    0.000
 RMSDP=3.62D-08 MaxDP=2.50D-06 DE=-3.18D-09 OVMax= 8.87D-06

 Cycle  12  Pass 1  IDiag  1:
 RMSU=  2.43D-08    CP:  9.86D-01  6.30D-01  9.10D-01  8.28D-01  5.90D-01
                    CP:  6.47D-01  8.43D-01  9.34D-01  8.98D-01  8.39D-01
                    CP:  1.02D+00
 E= -1289.07926888996     Delta-E=       -0.000000000204 Rises=F Damp=F
 DIIS: error= 2.73D-07 at cycle  12 NSaved=  12.
 NSaved=12 IEnMin=12 EnMin= -1289.07926888996     IErMin=12 ErrMin= 2.73D-07
 ErrMax= 2.73D-07  0.00D+00 EMaxC= 1.00D-01 BMatC= 5.48D-11 BMatP= 2.60D-10
 IDIUse=1 WtCom= 1.00D+00 WtEn= 0.00D+00
 Coeff-Com: -0.101D-05 0.578D-05 0.251D-04 0.444D-04-0.213D-04-0.421D-03
 Coeff-Com: -0.225D-02-0.118D-01-0.203D-01 0.442D-01 0.400D+00 0.591D+00
 Coeff:     -0.101D-05 0.578D-05 0.251D-04 0.444D-04-0.213D-04-0.421D-03
 Coeff:     -0.225D-02-0.118D-01-0.203D-01 0.442D-01 0.400D+00 0.591D+00
 Gap=     0.200 Goal=   None    Shift=    0.000
 RMSDP=1.50D-08 MaxDP=1.05D-06 DE=-2.04D-10 OVMax= 2.50D-06

 Cycle  13  Pass 1  IDiag  1:
 RMSU=  7.89D-09    CP:  9.86D-01  6.30D-01  9.10D-01  8.28D-01  5.90D-01
                    CP:  6.47D-01  8.43D-01  9.34D-01  9.04D-01  8.63D-01
                    CP:  1.08D+00  7.89D-01
 E= -1289.07926889001     Delta-E=       -0.000000000042 Rises=F Damp=F
 DIIS: error= 6.66D-08 at cycle  13 NSaved=  13.
 NSaved=13 IEnMin=13 EnMin= -1289.07926889001     IErMin=13 ErrMin= 6.66D-08
 ErrMax= 6.66D-08  0.00D+00 EMaxC= 1.00D-01 BMatC= 3.34D-12 BMatP= 5.48D-11
 IDIUse=1 WtCom= 1.00D+00 WtEn= 0.00D+00
 Coeff-Com: -0.944D-06 0.291D-05 0.148D-04 0.332D-04 0.386D-04-0.226D-04
 Coeff-Com: -0.705D-03-0.446D-02-0.108D-01 0.140D-02 0.959D-01 0.252D+00
 Coeff-Com:  0.666D+00
 Coeff:     -0.944D-06 0.291D-05 0.148D-04 0.332D-04 0.386D-04-0.226D-04
 Coeff:     -0.705D-03-0.446D-02-0.108D-01 0.140D-02 0.959D-01 0.252D+00
 Coeff:      0.666D+00
 Gap=     0.200 Goal=   None    Shift=    0.000
 RMSDP=3.84D-09 MaxDP=2.77D-07 DE=-4.18D-11 OVMax= 7.25D-07

 Error on total polarization charges =  0.00981
 SCF Done:  E(RPBE1PBE) =  -1289.07926889     A.U. after   13 cycles
            NFock= 13  Conv=0.38D-08     -V/T= 2.0035
 KE= 1.284592808753D+03 PE=-6.541221894167D+03 EE= 2.220638413894D+03
 Leave Link  502 at Sat Jul  6 19:57:21 2024, MaxMem=  8053063680 cpu:            1767.8 elap:             110.8
 (Enter /share/apps/g16.b01_avx2/g16/l601.exe)
 Copying SCF densities to generalized density rwf, IOpCl= 0 IROHF=0.

 **********************************************************************

            Population analysis using the SCF Density.

 **********************************************************************

 Orbital symmetries:
       Occupied  (A) (A) (A) (A) (A) (A) (A) (A) (A) (A) (A) (A)
                 (A) (A) (A) (A) (A) (A) (A) (A) (A) (A) (A) (A)
                 (A) (A) (A) (A) (A) (A) (A) (A) (A) (A) (A) (A)
                 (A) (A) (A) (A) (A) (A) (A) (A) (A) (A) (A) (A)
                 (A) (A) (A) (A) (A) (A) (A) (A) (A) (A) (A) (A)
                 (A) (A) (A) (A) (A) (A) (A) (A) (A) (A) (A) (A)
                 (A) (A) (A) (A) (A)
       Virtual   (A) (A) (A) (A) (A) (A) (A) (A) (A) (A) (A) (A)
                 (A) (A) (A) (A) (A) (A) (A) (A) (A) (A) (A) (A)
                 (A) (A) (A) (A) (A) (A) (A) (A) (A) (A) (A) (A)
                 (A) (A) (A) (A) (A) (A) (A) (A) (A) (A) (A) (A)
                 (A) (A) (A) (A) (A) (A) (A) (A) (A) (A) (A) (A)
                 (A) (A) (A) (A) (A) (A) (A) (A) (A) (A) (A) (A)
                 (A) (A) (A) (A) (A) (A) (A) (A) (A) (A) (A) (A)
                 (A) (A) (A) (A) (A) (A) (A) (A) (A) (A) (A) (A)
                 (A) (A) (A) (A) (A) (A) (A) (A) (A) (A) (A) (A)
                 (A) (A) (A) (A) (A) (A) (A) (A) (A) (A) (A) (A)
                 (A) (A) (A) (A) (A) (A) (A) (A) (A) (A) (A) (A)
                 (A) (A) (A) (A) (A) (A) (A) (A) (A) (A) (A) (A)
                 (A) (A) (A) (A) (A) (A) (A) (A) (A) (A) (A) (A)
                 (A) (A) (A) (A) (A) (A) (A) (A) (A) (A) (A) (A)
                 (A) (A) (A) (A) (A) (A) (A) (A) (A) (A) (A) (A)
                 (A) (A) (A) (A) (A) (A) (A) (A) (A) (A) (A) (A)
                 (A) (A) (A) (A) (A) (A) (A) (A) (A) (A) (A) (A)
                 (A) (A) (A) (A) (A) (A) (A) (A) (A) (A) (A) (A)
                 (A) (A) (A) (A) (A) (A) (A) (A) (A) (A) (A) (A)
                 (A) (A) (A) (A) (A) (A) (A) (A) (A) (A) (A) (A)
                 (A) (A) (A) (A) (A) (A) (A) (A) (A) (A) (A) (A)
                 (A) (A) (A) (A) (A) (A) (A) (A) (A) (A) (A) (A)
                 (A) (A) (A) (A) (A) (A) (A) (A) (A) (A) (A) (A)
                 (A) (A) (A) (A) (A) (A) (A) (A) (A) (A) (A) (A)
                 (A) (A) (A) (A) (A) (A) (A) (A) (A) (A) (A) (A)
                 (A) (A) (A) (A) (A) (A) (A) (A) (A) (A) (A) (A)
                 (A) (A) (A) (A) (A) (A) (A) (A) (A) (A) (A) (A)
                 (A) (A) (A) (A) (A) (A) (A) (A) (A) (A) (A) (A)
                 (A) (A) (A) (A) (A) (A) (A) (A) (A) (A) (A) (A)
                 (A) (A) (A) (A) (A) (A) (A) (A) (A) (A) (A) (A)
                 (A) (A) (A) (A) (A) (A) (A) (A) (A) (A) (A) (A)
                 (A) (A) (A) (A) (A) (A) (A) (A) (A) (A) (A) (A)
                 (A) (A) (A) (A) (A) (A) (A) (A) (A) (A) (A) (A)
                 (A) (A) (A) (A) (A) (A) (A) (A) (A) (A) (A) (A)
                 (A) (A) (A) (A) (A) (A) (A) (A) (A) (A) (A) (A)
                 (A) (A) (A) (A) (A) (A) (A) (A) (A) (A) (A) (A)
                 (A) (A) (A) (A) (A) (A) (A) (A) (A) (A) (A) (A)
                 (A) (A) (A) (A) (A) (A) (A) (A) (A) (A) (A) (A)
                 (A) (A) (A) (A) (A) (A) (A) (A) (A) (A) (A) (A)
                 (A) (A) (A) (A) (A) (A) (A) (A) (A) (A) (A) (A)
                 (A) (A) (A) (A) (A) (A) (A) (A) (A) (A) (A) (A)
                 (A) (A) (A) (A) (A) (A) (A) (A) (A) (A) (A) (A)
                 (A) (A) (A) (A) (A) (A) (A) (A) (A) (A) (A) (A)
                 (A) (A) (A) (A) (A) (A) (A) (A) (A) (A) (A) (A)
                 (A) (A) (A) (A) (A) (A) (A) (A) (A) (A) (A) (A)
                 (A) (A) (A) (A) (A) (A) (A) (A) (A) (A) (A) (A)
                 (A) (A) (A) (A) (A) (A) (A) (A) (A) (A) (A) (A)
                 (A) (A) (A) (A) (A) (A) (A) (A) (A) (A) (A) (A)
                 (A) (A) (A) (A) (A) (A) (A) (A) (A) (A) (A) (A)
                 (A) (A) (A)
 The electronic state is 1-A.
 Alpha  occ. eigenvalues --  -24.81179 -24.81177 -24.80901 -24.80779 -24.80734
 Alpha  occ. eigenvalues --  -24.80107 -24.80016 -19.19741 -19.18055 -14.49233
 Alpha  occ. eigenvalues --  -10.48835 -10.38264 -10.33800 -10.33761 -10.31610
 Alpha  occ. eigenvalues --  -10.31604 -10.29707 -10.26782 -10.25863 -10.23563
 Alpha  occ. eigenvalues --   -1.36444  -1.29548  -1.29534  -1.27823  -1.27745
 Alpha  occ. eigenvalues --   -1.27079  -1.26873  -1.11823  -1.02641  -0.99397
 Alpha  occ. eigenvalues --   -0.91793  -0.82078  -0.79531  -0.78238  -0.73595
 Alpha  occ. eigenvalues --   -0.73321  -0.68069  -0.68001  -0.64016  -0.63056
 Alpha  occ. eigenvalues --   -0.62914  -0.62655  -0.59677  -0.59469  -0.58895
 Alpha  occ. eigenvalues --   -0.56994  -0.56151  -0.54452  -0.53691  -0.53025
 Alpha  occ. eigenvalues --   -0.52430  -0.51982  -0.50451  -0.49910  -0.49534
 Alpha  occ. eigenvalues --   -0.48949  -0.48605  -0.46955  -0.46451  -0.45899
 Alpha  occ. eigenvalues --   -0.45588  -0.45546  -0.44132  -0.43465  -0.43186
 Alpha  occ. eigenvalues --   -0.42711  -0.41513  -0.41199  -0.40617  -0.39192
 Alpha  occ. eigenvalues --   -0.38505  -0.35606  -0.33386  -0.29367  -0.28008
 Alpha  occ. eigenvalues --   -0.26275  -0.24177
 Alpha virt. eigenvalues --   -0.04214  -0.00250   0.00296   0.01224   0.03548
 Alpha virt. eigenvalues --    0.05612   0.06481   0.07994   0.08943   0.10240
 Alpha virt. eigenvalues --    0.11840   0.11960   0.12497   0.12912   0.13992
 Alpha virt. eigenvalues --    0.14411   0.14575   0.16075   0.16575   0.16770
 Alpha virt. eigenvalues --    0.18239   0.19009   0.19319   0.20115   0.21073
 Alpha virt. eigenvalues --    0.21485   0.21784   0.22263   0.23192   0.23425
 Alpha virt. eigenvalues --    0.23992   0.24931   0.25554   0.26004   0.26388
 Alpha virt. eigenvalues --    0.27334   0.27827   0.28579   0.28970   0.31173
 Alpha virt. eigenvalues --    0.31290   0.32093   0.32674   0.33136   0.34138
 Alpha virt. eigenvalues --    0.35314   0.35935   0.36763   0.36943   0.37945
 Alpha virt. eigenvalues --    0.38936   0.40366   0.40468   0.41190   0.41437
 Alpha virt. eigenvalues --    0.41861   0.42496   0.43104   0.43297   0.43764
 Alpha virt. eigenvalues --    0.44566   0.45103   0.45520   0.45903   0.46634
 Alpha virt. eigenvalues --    0.47293   0.47905   0.48805   0.49335   0.49966
 Alpha virt. eigenvalues --    0.50306   0.50811   0.52054   0.52788   0.53447
 Alpha virt. eigenvalues --    0.53825   0.54292   0.55529   0.56652   0.57335
 Alpha virt. eigenvalues --    0.57839   0.58462   0.58877   0.60185   0.62695
 Alpha virt. eigenvalues --    0.63810   0.64680   0.65064   0.66782   0.67219
 Alpha virt. eigenvalues --    0.67525   0.68013   0.69015   0.71221   0.71482
 Alpha virt. eigenvalues --    0.72241   0.73156   0.74081   0.74671   0.75368
 Alpha virt. eigenvalues --    0.75808   0.76954   0.77259   0.78975   0.80052
 Alpha virt. eigenvalues --    0.80653   0.81293   0.81499   0.82390   0.82933
 Alpha virt. eigenvalues --    0.83526   0.84293   0.84834   0.86590   0.86673
 Alpha virt. eigenvalues --    0.87522   0.88106   0.88985   0.89313   0.89947
 Alpha virt. eigenvalues --    0.91206   0.92189   0.93350   0.94074   0.94711
 Alpha virt. eigenvalues --    0.95438   0.95891   0.96688   0.97658   0.98501
 Alpha virt. eigenvalues --    1.00155   1.00904   1.01213   1.02493   1.03351
 Alpha virt. eigenvalues --    1.03988   1.05597   1.06026   1.07009   1.07912
 Alpha virt. eigenvalues --    1.09196   1.10306   1.10783   1.12327   1.14622
 Alpha virt. eigenvalues --    1.15586   1.17328   1.17561   1.19935   1.20058
 Alpha virt. eigenvalues --    1.23349   1.24649   1.26094   1.26595   1.27161
 Alpha virt. eigenvalues --    1.27831   1.27956   1.29285   1.29907   1.33844
 Alpha virt. eigenvalues --    1.34764   1.36825   1.37283   1.37798   1.39530
 Alpha virt. eigenvalues --    1.41356   1.43544   1.44041   1.45224   1.45850
 Alpha virt. eigenvalues --    1.47491   1.48600   1.49319   1.50363   1.51799
 Alpha virt. eigenvalues --    1.54862   1.55256   1.56067   1.56302   1.57489
 Alpha virt. eigenvalues --    1.58587   1.59728   1.60492   1.61449   1.62409
 Alpha virt. eigenvalues --    1.64169   1.65931   1.66703   1.68474   1.68717
 Alpha virt. eigenvalues --    1.70469   1.71644   1.72789   1.74598   1.76597
 Alpha virt. eigenvalues --    1.76736   1.78974   1.81056   1.82657   1.83654
 Alpha virt. eigenvalues --    1.83880   1.85800   1.86307   1.87789   1.89801
 Alpha virt. eigenvalues --    1.90049   1.91534   1.92607   1.94165   1.94728
 Alpha virt. eigenvalues --    1.95455   1.96567   1.97402   1.98426   1.98583
 Alpha virt. eigenvalues --    1.98945   1.99422   2.00325   2.02287   2.04068
 Alpha virt. eigenvalues --    2.04231   2.06923   2.07455   2.09172   2.10059
 Alpha virt. eigenvalues --    2.12065   2.12932   2.13076   2.14489   2.15166
 Alpha virt. eigenvalues --    2.17069   2.17591   2.18935   2.20894   2.22310
 Alpha virt. eigenvalues --    2.22529   2.23644   2.24849   2.25160   2.26845
 Alpha virt. eigenvalues --    2.27095   2.28296   2.30194   2.31161   2.32275
 Alpha virt. eigenvalues --    2.33122   2.35057   2.36236   2.36738   2.37328
 Alpha virt. eigenvalues --    2.38042   2.38497   2.39436   2.41493   2.44392
 Alpha virt. eigenvalues --    2.45662   2.46288   2.48585   2.48906   2.50067
 Alpha virt. eigenvalues --    2.51463   2.52112   2.52755   2.54069   2.54122
 Alpha virt. eigenvalues --    2.54867   2.56115   2.56829   2.57956   2.58308
 Alpha virt. eigenvalues --    2.60040   2.60926   2.61877   2.64464   2.65520
 Alpha virt. eigenvalues --    2.66632   2.67079   2.67873   2.69516   2.70439
 Alpha virt. eigenvalues --    2.70648   2.71914   2.75420   2.77262   2.77700
 Alpha virt. eigenvalues --    2.78442   2.79396   2.80689   2.81302   2.82350
 Alpha virt. eigenvalues --    2.83776   2.85256   2.86365   2.87212   2.88041
 Alpha virt. eigenvalues --    2.88158   2.90587   2.90750   2.91681   2.92428
 Alpha virt. eigenvalues --    2.93849   2.94303   2.94497   2.95267   2.95492
 Alpha virt. eigenvalues --    2.97062   2.98147   2.99727   3.00014   3.01689
 Alpha virt. eigenvalues --    3.01992   3.02854   3.02978   3.03725   3.05963
 Alpha virt. eigenvalues --    3.07179   3.07967   3.08454   3.09178   3.10468
 Alpha virt. eigenvalues --    3.12116   3.13287   3.13938   3.14403   3.15136
 Alpha virt. eigenvalues --    3.16636   3.16948   3.17906   3.18803   3.19853
 Alpha virt. eigenvalues --    3.20668   3.22428   3.22581   3.23214   3.23717
 Alpha virt. eigenvalues --    3.24774   3.25804   3.26414   3.27062   3.28471
 Alpha virt. eigenvalues --    3.28777   3.29769   3.30360   3.31089   3.32767
 Alpha virt. eigenvalues --    3.34903   3.35518   3.37329   3.37753   3.38995
 Alpha virt. eigenvalues --    3.39397   3.39462   3.41272   3.43415   3.44132
 Alpha virt. eigenvalues --    3.44869   3.45304   3.46298   3.49238   3.49365
 Alpha virt. eigenvalues --    3.50081   3.51626   3.52283   3.52972   3.53716
 Alpha virt. eigenvalues --    3.55948   3.56690   3.58025   3.58739   3.63325
 Alpha virt. eigenvalues --    3.63886   3.64313   3.66101   3.66425   3.70503
 Alpha virt. eigenvalues --    3.71743   3.72518   3.73763   3.74620   3.76073
 Alpha virt. eigenvalues --    3.76652   3.77337   3.78759   3.78824   3.83000
 Alpha virt. eigenvalues --    3.84862   3.85826   3.87501   3.88450   3.88672
 Alpha virt. eigenvalues --    3.91697   3.93931   3.95924   3.96933   3.97792
 Alpha virt. eigenvalues --    3.98441   3.99650   4.00073   4.01977   4.02636
 Alpha virt. eigenvalues --    4.03055   4.04893   4.06917   4.07461   4.08696
 Alpha virt. eigenvalues --    4.11851   4.15045   4.15913   4.16947   4.18302
 Alpha virt. eigenvalues --    4.20175   4.20925   4.23552   4.24349   4.25033
 Alpha virt. eigenvalues --    4.26355   4.28643   4.35309   4.36476   4.37274
 Alpha virt. eigenvalues --    4.38761   4.40027   4.41563   4.41923   4.44939
 Alpha virt. eigenvalues --    4.45579   4.49061   4.51317   4.58557   4.60632
 Alpha virt. eigenvalues --    4.61914   4.63076   4.68215   4.69862   4.74833
 Alpha virt. eigenvalues --    4.76066   4.83427   4.86327   4.88361   4.89966
 Alpha virt. eigenvalues --    4.91009   4.93274   4.95454   4.97415   5.00332
 Alpha virt. eigenvalues --    5.01210   5.05262   5.14051   5.16388   5.20287
 Alpha virt. eigenvalues --    5.22489   5.26069   5.26762   5.27305   5.31634
 Alpha virt. eigenvalues --    5.33339   5.38257   5.41398   5.43566   5.43827
 Alpha virt. eigenvalues --    5.47492   5.48663   5.48954   5.55860   5.58133
 Alpha virt. eigenvalues --    5.62445   5.64925   5.69485   5.74915   5.84883
 Alpha virt. eigenvalues --    5.86244   6.00715   6.17093   6.27454   6.33487
 Alpha virt. eigenvalues --    6.38774   6.44193   6.52133   6.56267   6.67867
 Alpha virt. eigenvalues --    6.74844   6.80351   6.84726   6.84772   6.84996
 Alpha virt. eigenvalues --    6.85892   6.85937   6.86005   6.86163   6.86298
 Alpha virt. eigenvalues --    6.86765   6.86890   6.86978   6.87586   6.87793
 Alpha virt. eigenvalues --    6.87965   6.88185   6.89064   6.89863   6.94791
 Alpha virt. eigenvalues --    6.94995   6.98143   6.99382   6.99798   7.01695
 Alpha virt. eigenvalues --    7.02373   7.03617   7.05164   7.05979   7.06872
 Alpha virt. eigenvalues --    7.07955   7.08394   7.10201   7.13486   7.14378
 Alpha virt. eigenvalues --    7.17481   7.18119   7.19642   7.20969   7.23204
 Alpha virt. eigenvalues --    7.30114   7.32780   7.33338   7.35253   7.37493
 Alpha virt. eigenvalues --    7.40215   7.41210   7.47578   7.50094   7.53592
 Alpha virt. eigenvalues --    7.55827   7.56166   7.63090   7.63260   7.77702
 Alpha virt. eigenvalues --    7.99104   8.30686   8.32163   8.33891   8.34119
 Alpha virt. eigenvalues --    8.34560   8.37784   8.41560   8.47944   8.48919
 Alpha virt. eigenvalues --    8.49437   8.55355   8.58249   8.58413   8.70992
 Alpha virt. eigenvalues --    8.71239   8.73592   8.73856   8.78145   8.79567
 Alpha virt. eigenvalues --    8.81697   8.85205   8.89047   8.89987   8.91490
 Alpha virt. eigenvalues --    8.95384   9.00213   9.01017   9.02017   9.02292
 Alpha virt. eigenvalues --    9.04245   9.05989   9.11651   9.14634   9.16105
 Alpha virt. eigenvalues --    9.31281  22.27111  22.42997  22.48069  22.92985
 Alpha virt. eigenvalues --   22.95797  23.03831  23.09232  23.17214  23.20351
 Alpha virt. eigenvalues --   23.79289  32.19804  44.11084  44.26273  57.24785
 Alpha virt. eigenvalues --   57.31941  57.35323  57.40564  57.42008  57.58934
 Alpha virt. eigenvalues --   57.64452
          Condensed to atoms (all electrons):
               1          2          3          4          5          6
     1  H    0.380659   0.009018  -0.000124   0.343531  -0.020843  -0.025456
     2  O    0.009018   8.161493   0.591181  -0.180105   0.007839  -0.148733
     3  C   -0.000124   0.591181   4.741145   0.235705  -0.022378  -0.049141
     4  N    0.343531  -0.180105   0.235705   6.208125   0.351395   0.290681
     5  H   -0.020843   0.007839  -0.022378   0.351395   0.406864  -0.014431
     6  C   -0.025456  -0.148733  -0.049141   0.290681  -0.014431   5.075461
     7  H    0.004916  -0.012294  -0.001236  -0.031910  -0.004445   0.412039
     8  H   -0.005155  -0.014322  -0.033452  -0.015660   0.005182   0.442057
     9  H   -0.001382   0.011063   0.017348  -0.029072  -0.005227   0.369071
    10  C    0.002445  -0.059316   0.340759  -0.031661   0.002996  -0.015263
    11  H   -0.000091   0.000960  -0.028745   0.003682   0.000010   0.000569
    12  H   -0.000076  -0.002334  -0.021663   0.001797  -0.000516  -0.000299
    13  H   -0.000283   0.003796  -0.022824   0.004720  -0.000291   0.000235
    14  O   -0.001629  -0.010551   0.104520  -0.035291   0.003374   0.006728
    15  C   -0.000311   0.003527  -0.057043   0.006749   0.000925  -0.001668
    16  C   -0.000940   0.001945  -0.010264   0.001383   0.000577  -0.000473
    17  C    0.000000   0.002698  -0.010078   0.002104  -0.000144   0.000006
    18  C   -0.000322  -0.000265   0.003660  -0.000336   0.000063   0.000101
    19  C    0.000066  -0.000419   0.002924  -0.000187  -0.000055   0.000020
    20  C   -0.000045   0.000060  -0.000952   0.000059   0.000007  -0.000009
    21  F    0.004907  -0.000064  -0.000156   0.000073   0.000334  -0.000019
    22  F    0.000001  -0.000266   0.002833  -0.000008  -0.000004   0.000007
    23  F   -0.000002  -0.000000   0.000001  -0.000000  -0.000000   0.000000
    24  F   -0.000000   0.000000   0.000006  -0.000000   0.000000   0.000000
    25  C   -0.000001   0.000000  -0.000032   0.000001   0.000000  -0.000000
    26  F   -0.000000   0.000000  -0.000000   0.000000   0.000000  -0.000000
    27  F   -0.000000  -0.000000   0.000000  -0.000000  -0.000000   0.000000
    28  F    0.000000   0.000000  -0.000000   0.000000   0.000000  -0.000000
               7          8          9         10         11         12
     1  H    0.004916  -0.005155  -0.001382   0.002445  -0.000091  -0.000076
     2  O   -0.012294  -0.014322   0.011063  -0.059316   0.000960  -0.002334
     3  C   -0.001236  -0.033452   0.017348   0.340759  -0.028745  -0.021663
     4  N   -0.031910  -0.015660  -0.029072  -0.031661   0.003682   0.001797
     5  H   -0.004445   0.005182  -0.005227   0.002996   0.000010  -0.000516
     6  C    0.412039   0.442057   0.369071  -0.015263   0.000569  -0.000299
     7  H    0.493758  -0.013497  -0.022082   0.002394   0.000089   0.001068
     8  H   -0.013497   0.457875  -0.026605   0.003282  -0.000104   0.000024
     9  H   -0.022082  -0.026605   0.546093  -0.000765   0.000002   0.000012
    10  C    0.002394   0.003282  -0.000765   4.958374   0.406034   0.377755
    11  H    0.000089  -0.000104   0.000002   0.406034   0.488752  -0.019437
    12  H    0.001068   0.000024   0.000012   0.377755  -0.019437   0.537883
    13  H   -0.000637  -0.000189  -0.000075   0.390829  -0.010644  -0.025912
    14  O   -0.000134  -0.000551   0.000132  -0.063745  -0.007591   0.008032
    15  C    0.000098   0.000126  -0.000113   0.003511   0.000905  -0.000312
    16  C    0.000007   0.000070   0.000016   0.000709   0.000223   0.000002
    17  C    0.000010  -0.000010  -0.000009  -0.003058  -0.000512   0.000087
    18  C   -0.000001  -0.000014   0.000003  -0.000587   0.000034  -0.000006
    19  C   -0.000001  -0.000005   0.000001   0.000273  -0.000316   0.000039
    20  C    0.000000   0.000001  -0.000000   0.000023  -0.000020  -0.000002
    21  F   -0.000004   0.000002   0.000002  -0.000024   0.000003  -0.000001
    22  F   -0.000001  -0.000002   0.000000  -0.001054   0.004624   0.000147
    23  F   -0.000000  -0.000000   0.000000   0.000000  -0.000000   0.000000
    24  F    0.000000  -0.000000   0.000000  -0.000002  -0.000003  -0.000000
    25  C   -0.000000  -0.000000  -0.000000  -0.000000   0.000000  -0.000000
    26  F    0.000000   0.000000  -0.000000   0.000000   0.000000  -0.000000
    27  F   -0.000000  -0.000000   0.000000  -0.000000  -0.000000   0.000000
    28  F    0.000000   0.000000  -0.000000   0.000000  -0.000000  -0.000000
              13         14         15         16         17         18
     1  H   -0.000283  -0.001629  -0.000311  -0.000940   0.000000  -0.000322
     2  O    0.003796  -0.010551   0.003527   0.001945   0.002698  -0.000265
     3  C   -0.022824   0.104520  -0.057043  -0.010264  -0.010078   0.003660
     4  N    0.004720  -0.035291   0.006749   0.001383   0.002104  -0.000336
     5  H   -0.000291   0.003374   0.000925   0.000577  -0.000144   0.000063
     6  C    0.000235   0.006728  -0.001668  -0.000473   0.000006   0.000101
     7  H   -0.000637  -0.000134   0.000098   0.000007   0.000010  -0.000001
     8  H   -0.000189  -0.000551   0.000126   0.000070  -0.000010  -0.000014
     9  H   -0.000075   0.000132  -0.000113   0.000016  -0.000009   0.000003
    10  C    0.390829  -0.063745   0.003511   0.000709  -0.003058  -0.000587
    11  H   -0.010644  -0.007591   0.000905   0.000223  -0.000512   0.000034
    12  H   -0.025912   0.008032  -0.000312   0.000002   0.000087  -0.000006
    13  H    0.510735  -0.006846   0.000554  -0.000800   0.001189   0.000015
    14  O   -0.006846   8.271084   0.345247  -0.050460  -0.056305   0.011130
    15  C    0.000554   0.345247   5.204900   0.226051   0.207124   0.016276
    16  C   -0.000800  -0.050460   0.226051   5.204298   0.101655   0.271152
    17  C    0.001189  -0.056305   0.207124   0.101655   5.220978  -0.087381
    18  C    0.000015   0.011130   0.016276   0.271152  -0.087381   5.153688
    19  C   -0.000139   0.015548   0.032041  -0.097064   0.267597   0.006052
    20  C    0.000027  -0.001253  -0.040578  -0.017548  -0.019763   0.200751
    21  F   -0.000021  -0.003137  -0.052990   0.275592   0.004515  -0.046778
    22  F   -0.000361  -0.000767  -0.058121   0.003753   0.280171  -0.000330
    23  F   -0.000000  -0.000061   0.009511  -0.053426  -0.002004   0.317620
    24  F    0.000000  -0.000076   0.009085  -0.001746  -0.052265   0.001800
    25  C    0.000000  -0.000074  -0.008928   0.018142   0.019762  -0.043373
    26  F    0.000000  -0.000000   0.000194  -0.000698   0.000206   0.004189
    27  F   -0.000000   0.000000   0.000461  -0.000699  -0.000816   0.014593
    28  F    0.000000  -0.000000   0.000188   0.000193  -0.000675   0.006847
              19         20         21         22         23         24
     1  H    0.000066  -0.000045   0.004907   0.000001  -0.000002  -0.000000
     2  O   -0.000419   0.000060  -0.000064  -0.000266  -0.000000   0.000000
     3  C    0.002924  -0.000952  -0.000156   0.002833   0.000001   0.000006
     4  N   -0.000187   0.000059   0.000073  -0.000008  -0.000000  -0.000000
     5  H   -0.000055   0.000007   0.000334  -0.000004  -0.000000   0.000000
     6  C    0.000020  -0.000009  -0.000019   0.000007   0.000000   0.000000
     7  H   -0.000001   0.000000  -0.000004  -0.000001  -0.000000   0.000000
     8  H   -0.000005   0.000001   0.000002  -0.000002  -0.000000  -0.000000
     9  H    0.000001  -0.000000   0.000002   0.000000   0.000000   0.000000
    10  C    0.000273   0.000023  -0.000024  -0.001054   0.000000  -0.000002
    11  H   -0.000316  -0.000020   0.000003   0.004624  -0.000000  -0.000003
    12  H    0.000039  -0.000002  -0.000001   0.000147   0.000000  -0.000000
    13  H   -0.000139   0.000027  -0.000021  -0.000361  -0.000000   0.000000
    14  O    0.015548  -0.001253  -0.003137  -0.000767  -0.000061  -0.000076
    15  C    0.032041  -0.040578  -0.052990  -0.058121   0.009511   0.009085
    16  C   -0.097064  -0.017548   0.275592   0.003753  -0.053426  -0.001746
    17  C    0.267597  -0.019763   0.004515   0.280171  -0.002004  -0.052265
    18  C    0.006052   0.200751  -0.046778  -0.000330   0.317620   0.001800
    19  C    5.152109   0.200521  -0.000271  -0.043559   0.001859   0.314647
    20  C    0.200521   5.903945   0.010174   0.009975  -0.080847  -0.080123
    21  F   -0.000271   0.010174   9.004252  -0.000031   0.000022   0.000000
    22  F   -0.043559   0.009975  -0.000031   8.992049   0.000000  -0.000080
    23  F    0.001859  -0.080847   0.000022   0.000000   8.977914  -0.000027
    24  F    0.314647  -0.080123   0.000000  -0.000080  -0.000027   8.979126
    25  C   -0.048651   0.318441  -0.000036   0.000010   0.014141   0.014447
    26  F    0.006816  -0.086612   0.000000   0.000001  -0.000085  -0.007428
    27  F    0.014935  -0.115258   0.000001   0.000001  -0.000216  -0.000219
    28  F    0.004078  -0.086586   0.000001   0.000000  -0.007492  -0.000087
              25         26         27         28
     1  H   -0.000001  -0.000000  -0.000000   0.000000
     2  O    0.000000   0.000000  -0.000000   0.000000
     3  C   -0.000032  -0.000000   0.000000  -0.000000
     4  N    0.000001   0.000000  -0.000000   0.000000
     5  H    0.000000   0.000000  -0.000000   0.000000
     6  C   -0.000000  -0.000000   0.000000  -0.000000
     7  H   -0.000000   0.000000  -0.000000   0.000000
     8  H   -0.000000   0.000000  -0.000000   0.000000
     9  H   -0.000000  -0.000000   0.000000  -0.000000
    10  C   -0.000000   0.000000  -0.000000   0.000000
    11  H    0.000000   0.000000  -0.000000  -0.000000
    12  H   -0.000000  -0.000000   0.000000  -0.000000
    13  H    0.000000   0.000000  -0.000000   0.000000
    14  O   -0.000074  -0.000000   0.000000  -0.000000
    15  C   -0.008928   0.000194   0.000461   0.000188
    16  C    0.018142  -0.000698  -0.000699   0.000193
    17  C    0.019762   0.000206  -0.000816  -0.000675
    18  C   -0.043373   0.004189   0.014593   0.006847
    19  C   -0.048651   0.006816   0.014935   0.004078
    20  C    0.318441  -0.086612  -0.115258  -0.086586
    21  F   -0.000036   0.000000   0.000001   0.000001
    22  F    0.000010   0.000001   0.000001   0.000000
    23  F    0.014141  -0.000085  -0.000216  -0.007492
    24  F    0.014447  -0.007428  -0.000219  -0.000087
    25  C    4.113306   0.380403   0.376098   0.380284
    26  F    0.380403   8.971646  -0.056424  -0.053617
    27  F    0.376098  -0.056424   8.988764  -0.056576
    28  F    0.380284  -0.053617  -0.056576   8.972099
 Mulliken charges:
               1
     1  H    0.311118
     2  O   -0.364912
     3  C    0.218006
     4  N   -0.125775
     5  H    0.288769
     6  C   -0.341484
     7  H    0.171863
     8  H    0.200947
     9  H    0.141587
    10  C   -0.313908
    11  H    0.161574
    12  H    0.143712
    13  H    0.156922
    14  O   -0.527323
    15  C    0.152590
    16  C    0.128351
    17  C    0.124916
    18  C    0.171420
    19  C    0.171141
    20  C   -0.114388
    21  F   -0.196347
    22  F   -0.188989
    23  F   -0.176906
    24  F   -0.177054
    25  C    0.466059
    26  F   -0.158590
    27  F   -0.164643
    28  F   -0.158657
 Sum of Mulliken charges =  -0.00000
 Mulliken charges with hydrogens summed into heavy atoms:
               1
     2  O   -0.364912
     3  C    0.218006
     4  N    0.474112
     6  C    0.172914
    10  C    0.148301
    14  O   -0.527323
    15  C    0.152590
    16  C    0.128351
    17  C    0.124916
    18  C    0.171420
    19  C    0.171141
    20  C   -0.114388
    21  F   -0.196347
    22  F   -0.188989
    23  F   -0.176906
    24  F   -0.177054
    25  C    0.466059
    26  F   -0.158590
    27  F   -0.164643
    28  F   -0.158657
 Electronic spatial extent (au):  <R**2>=           6485.9223
 Charge=             -0.0000 electrons
 Dipole moment (field-independent basis, Debye):
    X=             11.4412    Y=             -4.1802    Z=             -0.7821  Tot=             12.2060
 Quadrupole moment (field-independent basis, Debye-Ang):
   XX=            -81.6656   YY=           -111.0003   ZZ=           -113.3741
   XY=            -15.1965   XZ=             -3.3979   YZ=             -3.8538
 Traceless Quadrupole moment (field-independent basis, Debye-Ang):
   XX=             20.3477   YY=             -8.9870   ZZ=            -11.3607
   XY=            -15.1965   XZ=             -3.3979   YZ=             -3.8538
 Octapole moment (field-independent basis, Debye-Ang**2):
  XXX=            210.7123  YYY=            -17.8173  ZZZ=             -1.4398  XYY=             24.3622
  XXY=            -55.7116  XXZ=            -23.5135  XZZ=            -22.9384  YZZ=             -7.6721
  YYZ=              3.4426  XYZ=            -10.8635
 Hexadecapole moment (field-independent basis, Debye-Ang**3):
 XXXX=          -4992.2305 YYYY=          -1258.9503 ZZZZ=           -433.6930 XXXY=           -217.7248
 XXXZ=            -82.8617 YYYX=            -48.7793 YYYZ=             -0.5472 ZZZX=            -39.4010
 ZZZY=              5.3135 XXYY=          -1075.3870 XXZZ=          -1058.3617 YYZZ=           -276.6865
 XXYZ=            -43.7006 YYXZ=             -2.5617 ZZXY=            -26.3054
 N-N= 1.746911402630D+03 E-N=-6.541221887474D+03  KE= 1.284592808753D+03
 No NMR shielding tensors so no spin-rotation constants.
 Leave Link  601 at Sat Jul  6 19:57:21 2024, MaxMem=  8053063680 cpu:               2.4 elap:               0.2
 (Enter /share/apps/g16.b01_avx2/g16/l701.exe)
 ... and contract with generalized density number  0.
 Compute integral first derivatives.
 R6Disp: Adding Grimme-D3 dispersion energy 1st derivatives to the gradient.
   1 Symmetry operations used in ECPInt.
 ECPInt:  NShTT=   31878 NPrTT=  101040 LenC2=   26534 LenP2D=   58999.
 LDataN:  DoStor=T MaxTD1= 7 Len=  274
 D1PCM: PCM CHGder 1st derivatives, ID1Alg=3 FixD1E=F DoIter=F DoCFld=F I1PDM=0.
 GePol: Maximum number of non-zero 1st derivatives   =     218
 Leave Link  701 at Sat Jul  6 19:57:23 2024, MaxMem=  8053063680 cpu:              18.5 elap:               1.2
 (Enter /share/apps/g16.b01_avx2/g16/l702.exe)
 L702 exits ... SP integral derivatives will be done elsewhere.
 Leave Link  702 at Sat Jul  6 19:57:23 2024, MaxMem=  8053063680 cpu:               0.3 elap:               0.0
 (Enter /share/apps/g16.b01_avx2/g16/l703.exe)
 Integral derivatives from FoFJK, PRISM(SPDF).
 Compute integral first derivatives, UseDBF=F ICtDFT=           0.
 Calling FoFJK, ICntrl=      2127 FMM=F ISym2X=0 I1Cent= 0 IOpClX= 0 NMat=1 NMatS=1 NMatT=0.
 FoFJK:  IHMeth= 1 ICntrl=    2127 DoSepK=F KAlg= 0 I1Cent=           0 FoldK=F
 IRaf=         0 NMat=       1 IRICut=       1 DoRegI=T DoRafI=F ISym2E= 0 IDoP0=0 IntGTp=1.
 FoFCou: FMM=F IPFlag=           0 FMFlag=      100000 FMFlg1=         800
         NFxFlg=           0 DoJE=F BraDBF=F KetDBF=F FulRan=T
         wScrn=  0.000000 ICntrl=      2127 IOpCl=  0 I1Cent=           0 NGrid=           0
         NMat0=    1 NMatS0=      1 NMatT0=    0 NMatD0=    1 NMtDS0=    0 NMtDT0=    0
 Symmetry not used in FoFCou.
[...]
 448311,0.04371695,-0.04565408,0.00583370,0.00197638,0.00349211,0.00799
 694,-0.00482567,0.00461646,-0.00121065,-0.00227995,-0.00164363,0.00131
 721,0.00334840,0.00133010,0.02159944,-0.05740051,0.04071302,-0.0000122
 1,0.00004427,-0.00000207,-0.00033431,-0.00003761,0.00061967,-0.0005215
 8,-0.00002924,-0.00139500,0.00021181,0.00002333,0.00011007,-0.00011491
 ,0.00004942,-0.00001583,-0.00008530,-0.00004228,-0.00006434,0.00000374
 ,0.00000544,0.00000388,0.00000978,-0.00000068,0.00000704,0.00003391,-0
 .00001558,0.00001739,0.00023921,-0.00007587,0.00011816,-0.00000707,0.0
 0003084,0.00002955,0.00003396,0.00011301,-0.00001721,0.00001470,-0.000
 01747,-0.00000451,0.00908711,0.00172225,-0.00441864,0.00415665,0.01763
 927,-0.00709978,-0.00368407,0.00355858,0.00114697,-0.09364815,-0.06283
 721,0.04764898,-0.00178920,0.00167575,-0.00110785,-0.01082802,-0.04246
 115,0.02449486,-0.00504644,0.00260259,0.00165077,0.00078438,0.00094250
 ,-0.00089515,0.09793422,-0.00064489,0.00014384,-0.00007362,-0.00035251
 ,0.00000925,0.00133122,-0.00154452,-0.00016138,-0.00280754,0.00049626,
 0.00005132,0.00022560,-0.00030392,0.00014663,0.00002593,-0.00025382,-0
 .00000257,-0.00023956,0.00003977,0.00000404,0.00003139,0.00002522,-0.0
 0000348,0.00002088,0.00009130,-0.00004506,0.00004797,0.00054937,-0.000
 02776,0.00024329,0.00000805,-0.00002823,0.00000102,0.00013170,0.000206
 64,-0.00001738,-0.00007907,-0.00002208,0.00000340,0.00498206,0.0073886
 8,-0.00560066,-0.02600283,-0.04627532,0.03270712,0.00863973,0.00726053
 ,-0.00326689,-0.06208325,-0.24539226,0.11732283,-0.00587817,0.00526404
 ,-0.00201706,0.00025452,-0.02228906,0.01269486,-0.00080133,-0.00439873
 ,0.00446473,0.00196749,-0.00601932,0.00203008,0.08360306,0.30214627,0.
 00028686,-0.00008676,0.00004161,0.00026869,0.00002416,-0.00095735,0.00
 099041,-0.00005723,0.00198486,-0.00037020,0.00002893,-0.00013748,0.000
 15471,-0.00009247,-0.00006204,0.00015449,0.00001881,0.00012980,-0.0000
 1911,-0.00000595,-0.00001628,-0.00001791,0.00000342,-0.00001332,-0.000
 05505,0.00002533,-0.00003099,-0.00045888,-0.00004575,-0.00023630,-0.00
 000037,0.00005556,0.00003596,-0.00010266,-0.00012550,-0.00000875,0.000
 05937,0.00000495,-0.00003295,-0.00662570,-0.00606927,-0.00081775,0.013
 46113,0.01958152,-0.00564648,-0.00116128,-0.00168063,0.00711253,0.0470
 4415,0.11766736,-0.10067484,0.00244083,-0.00421149,-0.00147696,0.00463
 226,0.02546862,-0.00737647,0.00324545,0.00343907,0.00197717,-0.0013529
 4,0.00223896,-0.00129789,-0.06174217,-0.15537818,0.11065120,0.00028178
 ,-0.00012905,0.00006030,-0.00001493,-0.00000191,-0.00057161,0.00081448
 ,0.00013685,0.00112136,-0.00024573,0.00004373,-0.00009956,0.00020262,-
 0.00009627,-0.00003241,0.00012109,-0.00001151,0.00008786,-0.00002193,0
 .00000028,-0.00001603,-0.00002046,0.00000509,-0.00001411,-0.00003991,0
 .00001855,-0.00002142,-0.00022153,-0.00000128,-0.00008904,0.00000828,0
 .00002005,0.00002273,-0.00004550,-0.00006374,-0.00001060,0.00006284,0.
 00001835,-0.00001969,-0.00360778,-0.00365070,0.00190526,-0.00374817,0.
 01142676,-0.00212444,-0.01221802,-0.04685439,0.02882457,0.00419348,-0.
 00056744,-0.00159977,-0.09336842,-0.05436783,0.04148402,-0.00811400,-0
 .00042103,0.00394234,0.01785726,0.01949073,-0.01299268,0.00254050,-0.0
 0248721,-0.00132260,-0.00029463,-0.00154198,0.00091966,0.10513533,0.00
 047467,-0.00017990,0.00007628,-0.00002439,-0.00001768,-0.00110828,0.00
 146215,0.00019428,0.00210875,-0.00051559,0.00006099,-0.00019525,0.0003
 3913,-0.00015209,-0.00005462,0.00021772,-0.00001286,0.00016603,-0.0000
 3820,-0.00000009,-0.00002928,-0.00003643,0.00000584,-0.00002532,-0.000
 07587,0.00003458,-0.00003841,-0.00040953,0.00000750,-0.00017581,0.0000
 2244,0.00003614,0.00004036,-0.00008573,-0.00013153,-0.00000549,0.00008
 942,0.00002352,-0.00002253,-0.00628223,-0.00202620,0.00135824,0.005674
 74,0.00823700,-0.00238047,-0.00979629,-0.02999291,0.02205970,0.0039069
 4,0.00193805,-0.00300607,-0.05803011,-0.25278172,0.11708100,0.00088424
 ,0.00133556,0.00106706,-0.00866432,-0.03584411,0.02162306,-0.00188614,
 0.00844354,-0.00598252,-0.00224288,-0.00617555,0.00370193,0.07482864,0
 .31272796,-0.00027674,0.00015747,-0.00006869,0.00013096,0.00003191,0.0
 0067063,-0.00103584,-0.00019939,-0.00125999,0.00033654,-0.00006593,0.0
 0013946,-0.00021188,0.00009415,0.00004067,-0.00014078,-0.00000202,-0.0
 0011398,0.00002424,0.00000047,0.00001816,0.00002256,-0.00000331,0.0000
 1580,0.00005226,-0.00002262,0.00002664,0.00021760,-0.00000955,0.000085
 99,-0.00001132,-0.00001719,-0.00002348,0.00004933,0.00007622,-0.000004
 33,-0.00005641,-0.00001303,-0.00000164,0.00368640,0.00157227,-0.002318
 28,0.00060993,-0.00400880,0.00852771,0.01154618,0.03302850,-0.00769455
 ,-0.00369597,-0.00169945,-0.00010561,0.04342061,0.11593108,-0.10631181
 ,0.00329029,0.00147504,0.00272671,0.00009131,0.01333937,-0.00127916,-0
 .00173251,-0.00567317,-0.00235008,0.00127719,0.00354746,-0.00160056,-0
 .05972241,-0.15816532,0.11359900,0.00046796,-0.00019794,0.00011706,-0.
 00008603,-0.00009788,-0.00112060,0.00138215,0.00036701,0.00209424,-0.0
 0066242,0.00007812,-0.00025474,0.00041439,-0.00017525,-0.00007892,0.00
 022645,-0.00001864,0.00012250,-0.00004300,0.00000124,-0.00002856,-0.00
 004946,0.00001532,-0.00002882,-0.00007077,0.00003367,-0.00003915,-0.00
 032534,0.00001249,-0.00015086,0.00001924,0.00002673,0.00003030,-0.0000
 6983,-0.00011428,-0.00000374,0.00008441,0.00003706,-0.00001417,-0.0076
 8729,0.00328925,-0.00040705,0.00395426,-0.01262387,0.00648573,0.005709
 64,0.00021928,-0.00249838,-0.03926220,0.05665039,-0.01125055,-0.007560
 43,-0.00001625,0.00347301,-0.17343680,0.12342337,-0.01710862,0.0130399
 7,0.00031939,-0.00230099,-0.00299041,0.00381204,-0.00074603,0.00346558
 ,-0.00319490,-0.00128840,0.00136160,0.00168671,-0.00080360,0.20670318,
 -0.00061718,0.00013223,-0.00009524,0.00005585,0.00008404,0.00098108,-0
 .00124587,-0.00028869,-0.00183074,0.00054592,-0.00002415,0.00020594,-0
 .00032716,0.00012923,0.00006211,-0.00020413,0.00003786,-0.00015063,0.0
 0004392,-0.00000309,0.00003038,0.00003518,-0.00001009,0.00002308,0.000
 06570,-0.00003256,0.00003619,0.00032154,-0.00000210,0.00014266,-0.0000
 1690,-0.00002508,-0.00003175,0.00007440,0.00011495,-0.00000121,-0.0000
 7029,-0.00002248,0.00000899,0.00566343,-0.00097565,-0.00103013,-0.0067
 3194,0.00578862,0.00283692,-0.00393238,0.00103459,-0.00020553,0.017453
 82,-0.01896262,0.00873393,-0.00189746,0.00068141,0.00195382,0.12680244
 ,-0.21816990,0.04537049,0.02977466,-0.03742285,0.01108056,0.00443893,-
 0.00484165,0.00118729,-0.00247534,0.00884220,-0.00614978,0.00100109,-0
 .00474642,0.00254198,-0.17051117,0.26917531,0.00014900,-0.00001001,-0.
 00000148,-0.00006424,-0.00004310,-0.00015432,0.00023347,0.00007141,0.0
 0026040,-0.00008832,-0.00000998,-0.00002083,0.00001045,-0.00001331,-0.
 00002903,0.00004436,-0.00000416,0.00004141,-0.00000740,0.00000027,-0.0
 0000519,-0.00000306,0.00000136,-0.00000269,-0.00001305,0.00000635,-0.0
 0000773,-0.00006112,0.00000405,-0.00002742,0.00000399,0.00000148,0.000
 00599,-0.00001051,-0.00002259,0.00000396,0.00000673,0.00000015,0.00000
 197,-0.00056012,-0.00114911,-0.00056125,0.00399639,0.00452917,0.003875
 95,-0.00045794,-0.00154017,-0.00125307,0.00679730,-0.00324926,0.010237
 09,0.00431143,0.00141848,0.00188454,-0.01870507,0.04636025,-0.05509529
 ,-0.01606617,0.02013852,0.00109389,-0.00103520,0.00134130,0.00019975,-
 0.00164047,-0.00581310,-0.00269862,-0.00049893,0.00232673,0.00035031,0
 .02462572,-0.06312962,0.04609704,-0.00082476,0.00054490,-0.00025798,-0
 .00090313,-0.00012274,0.00374916,-0.00420646,-0.00016752,-0.00776310,0
 .00149536,-0.00013607,0.00065553,-0.00090215,0.00040013,0.00010402,-0.
 00059779,-0.00004826,-0.00049350,0.00008533,0.00001473,0.00006801,0.00
 008794,-0.00001427,0.00006296,0.00022139,-0.00010079,0.00011772,0.0013
 8902,-0.00007750,0.00071052,-0.00006951,-0.00010435,-0.00009393,0.0002
 9100,0.00048264,-0.00001408,-0.00021941,-0.00008301,0.00004588,0.02378
 290,0.00096457,-0.00410027,-0.02226659,-0.00156410,0.00706067,0.007617
 41,0.01315899,-0.00755331,0.01206085,-0.01031542,0.00235979,-0.0295183
 8,0.02364612,-0.00168001,-0.01309482,-0.02949468,0.01766354,-0.1789546
 0,0.00550588,0.03406934,0.00483649,-0.00554628,0.00163575,0.00279837,0
 .00709417,-0.00350598,-0.00257407,-0.01225276,0.00531717,-0.00833005,0
 .00964674,-0.00355970,0.55217489,-0.00006842,-0.00004628,0.00001413,0.
 00005471,0.00001025,-0.00020693,0.00022104,0.00000975,0.00042967,-0.00
 004510,-0.00001268,-0.00003915,0.00005176,-0.00002377,0.00000964,0.000
 02636,0.00001983,0.00001006,0.00000107,-0.00000339,0.00000086,-0.00000
 372,0.00000158,-0.00000228,-0.00000852,0.00000419,-0.00000557,-0.00006
 196,0.00001123,-0.00003066,0.00000373,0.00000499,0.00000347,-0.0000112
 5,-0.00002140,0.00000101,0.00001231,0.00000668,-0.00000133,-0.00124286
 ,0.00035641,0.00047762,0.00151502,-0.00261175,-0.00057106,0.00146132,-
 0.00298594,0.00204034,-0.00168632,-0.00208921,0.00229439,0.02579720,0.
 01114767,-0.01187664,-0.03193535,0.00906377,0.00542074,-0.00362540,-0.
 08805403,0.01549309,0.00210995,-0.00046069,0.00047777,-0.00145483,-0.0
 0117368,0.00194125,-0.00604955,-0.00199516,0.00080425,0.00498682,-0.00
 220176,-0.00274411,0.01829182,0.49157438,0.00030780,-0.00012431,0.0000
 9116,0.00026781,0.00003739,-0.00106699,0.00113371,0.00010972,0.0021849
 6,-0.00041843,-0.00003571,-0.00021457,0.00024958,-0.00010944,-0.000017
 35,0.00018008,0.00001629,0.00014469,-0.00002455,-0.00000312,-0.0000195
 5,-0.00002483,0.00000407,-0.00001832,-0.00006275,0.00003009,-0.0000328
 2,-0.00035241,0.00002544,-0.00017819,0.00001776,0.00002015,0.00002843,
 -0.00008017,-0.00013117,0.00000991,0.00005723,0.00001714,-0.00000361,-
 0.00634175,-0.00000566,0.00187431,0.00517856,0.00037637,-0.00447968,-0
 .00219518,-0.00149746,0.00351359,-0.00254115,0.00491896,0.00007815,-0.
 00249643,-0.01128319,0.00855546,0.01908248,0.00471172,-0.00787061,0.03
 832648,0.01272262,-0.07504033,-0.00191743,0.00272203,0.00117457,0.0004
 9253,-0.00065844,0.00221788,0.00239374,0.00271518,-0.00622558,-0.00139
 134,-0.00413228,-0.00255475,-0.04290280,-0.03066050,0.46543640,0.00024
 113,-0.00014224,0.00006658,0.00025795,0.00003007,-0.00100923,0.0011160
 3,0.00004307,0.00209159,-0.00040298,0.00004541,-0.00017369,0.00023987,
 -0.00010480,-0.00003073,0.00015763,0.00000723,0.00013524,-0.00002434,-
 0.00000306,-0.00001897,-0.00002316,0.00000402,-0.00001693,-0.00005920,
 0.00002663,-0.00003149,-0.00037982,0.00002027,-0.00019759,0.00001779,0
 .00002758,0.00002502,-0.00007954,-0.00013128,0.00000352,0.00005872,0.0
 0002211,-0.00001376,-0.00638284,-0.00044413,0.00102912,0.00590212,0.00
 140756,-0.00183912,-0.00271686,-0.00327226,0.00143922,-0.00263661,0.00
 264253,-0.00107633,0.00319547,-0.00701096,0.00596509,0.00129520,0.0059
 3254,-0.00336919,-0.02138267,0.03011181,0.02812521,-0.00179516,0.00132
 614,-0.00087787,-0.00045566,-0.00153899,0.00059220,0.00110181,0.002791
 11,-0.00091767,0.00132257,-0.00242452,0.00215932,-0.08687851,0.0352617
 5,0.03398136,0.08409406,-0.00014668,0.00009059,-0.00004560,-0.00016482
 ,-0.00001544,0.00065678,-0.00071846,-0.00003657,-0.00135670,0.00025631
 ,-0.00002304,0.00011409,-0.00015540,0.00006816,0.00001800,-0.00009986,
 -0.00000576,-0.00008401,0.00001539,0.00000192,0.00001154,0.00001499,-0
 .00000323,0.00001084,0.00003705,-0.00001661,0.00002011,0.00024124,-0.0
 0001255,0.00012643,-0.00001088,-0.00001779,-0.00001647,0.00004977,0.00
 008287,-0.00000209,-0.00003911,-0.00001510,0.00000990,0.00409164,0.000
 26501,-0.00065491,-0.00399142,-0.00041269,0.00106180,0.00134815,0.0019
 1710,-0.00102599,0.00235337,-0.00153219,0.00030312,-0.00297034,0.00373
 975,-0.00213662,0.00114626,-0.00667132,0.00275247,0.01768112,-0.006588
 09,-0.01715527,0.00097322,-0.00072339,0.00041611,0.00043384,0.00122058
 ,-0.00046267,0.00039792,-0.00127573,0.00008687,-0.00400347,0.00218390,
 0.00115378,0.03233477,-0.14757505,-0.06957155,-0.04002500,0.24678912,-
 0.00018518,0.00007791,-0.00004396,-0.00014298,-0.00000869,0.00061679,-
 0.00066935,-0.00004995,-0.00126092,0.00025188,-0.00001833,0.00011006,-
 0.00014717,0.00006361,0.00002023,-0.00009736,0.00000042,-0.00008340,0.
 00001658,0.00000078,0.00001228,0.00001460,-0.00000317,0.00001070,0.000
 03559,-0.00001614,0.00001909,0.00022416,-0.00001125,0.00011699,-0.0000
 0997,-0.00001552,-0.00001600,0.00004763,0.00007759,-0.00000197,-0.0000
 3619,-0.00001314,0.00000876,0.00378074,0.00027485,-0.00060518,-0.00356
 043,-0.00077740,0.00106892,0.00115481,0.00128344,-0.00065091,0.0014621
 4,-0.00170644,0.00055100,-0.00053442,0.00474503,-0.00516253,-0.0014365
 4,-0.00259792,0.00279602,0.01874392,-0.02235803,-0.00738261,0.00153527
 ,-0.00097022,0.00051854,0.00033549,0.00104960,-0.00056427,-0.00040857,
 -0.00155303,0.00065379,0.00071136,0.00205856,-0.00235806,0.03485675,-0
 .06733619,-0.12948151,-0.03216194,0.13543100,0.19022419,0.00033484,-0.
 00016911,0.00009616,0.00029679,0.00004190,-0.00126569,0.00143541,0.000
 08717,0.00262476,-0.00051580,0.00001369,-0.00023320,0.00030499,-0.0001
 3559,-0.00003447,0.00021260,0.00001679,0.00017336,-0.00002978,-0.00000
 518,-0.00002401,-0.00002980,0.00000481,-0.00002136,-0.00007625,0.00003
 604,-0.00004090,-0.00046232,0.00002334,-0.00023068,0.00002336,0.000032
 65,0.00003243,-0.00009773,-0.00016283,0.00000730,0.00007253,0.00002579
 ,-0.00001127,-0.00799115,-0.00033204,0.00174113,0.00716079,0.00096418,
 -0.00366546,-0.00265041,-0.00314024,0.00313355,-0.00328528,0.00374176,
 -0.00044852,0.00140794,-0.01245144,0.00072108,0.00191427,0.00823759,-0
 .00366519,-0.04909408,0.00921706,-0.02927669,-0.00201306,0.00244022,0.
 00048523,-0.00050214,-0.00188277,0.00130689,0.00069592,0.00283467,-0.0
 0237557,0.00098224,-0.00453641,0.00034023,-0.15225143,0.00855774,-0.07
 630582,0.00913667,-0.01008053,-0.01912131,0.18139427,-0.00002075,0.000
 03388,-0.00001412,-0.00006326,-0.00001069,0.00021474,-0.00023634,-0.00
 000175,-0.00045412,0.00007646,-0.00000551,0.00003672,-0.00005031,0.000
 02249,0.00000254,-0.00003188,-0.00000600,-0.00002543,0.00000357,0.0000
 0136,0.00000292,0.00000456,-0.00000081,0.00000324,0.00001191,-0.000005
 35,0.00000646,0.00007917,-0.00000585,0.00004161,-0.00000380,-0.0000058
 5,-0.00000475,0.00001605,0.00002755,-0.00000121,-0.00001248,-0.0000052
 6,0.00000253,0.00137764,0.00003506,-0.00029667,-0.00132057,0.00008514,
 0.00053695,0.00057173,0.00094570,-0.00078140,0.00105355,-0.00048602,-0
 .00020835,-0.00256209,0.00019933,0.00008841,0.00183236,-0.00328412,0.0
 0176704,0.00701742,0.01149369,0.00136348,-0.00008341,-0.00010715,0.000
 01709,0.00005057,0.00025812,-0.00033153,0.00044343,-0.00015150,0.00021
 246,-0.00396605,-0.00027856,0.00014214,0.00742556,-0.06940596,0.013435
 25,-0.01785825,-0.00282544,-0.04311311,-0.01680052,0.08283698,0.000091
 77,-0.00004147,0.00002247,0.00005181,0.00000334,-0.00029815,0.00037204
 ,0.00002299,0.00062097,-0.00013124,0.00000846,-0.00005266,0.00007726,-
 0.00003466,-0.00001078,0.00005253,0.00000163,0.00004229,-0.00000793,-0
 .00000128,-0.00000630,-0.00000751,0.00000136,-0.00000514,-0.00001853,0
 .00000883,-0.00001026,-0.00011489,0.00000393,-0.00005622,0.00000627,0.
 00000904,0.00000742,-0.00002263,-0.00003890,0.00000121,0.00001861,0.00
 000750,-0.00000338,-0.00195349,-0.00006713,0.00043002,0.00192943,-0.00
 009374,-0.00076745,-0.00033777,-0.00059066,0.00031119,-0.00126576,0.00
 076531,-0.00007363,0.00054518,-0.00256838,0.00020047,-0.00036737,0.003
 72834,-0.00108110,-0.01298280,0.00217159,0.00224325,-0.00060719,0.0005
 3777,0.00009318,-0.00024954,-0.00068194,0.00045005,-0.00059843,0.00041
 714,-0.00006589,0.00217905,-0.00100281,0.00057871,-0.07534349,0.009959
 96,-0.14241514,-0.02908041,-0.03282578,-0.06750343,0.13925312,-0.02325
 099,0.25675228,0.00017302,-0.00008433,0.00004398,0.00011943,0.00001056
 ,-0.00060013,0.00067828,0.00004837,0.00122003,-0.00025276,0.00001941,-
 0.00010823,0.00014911,-0.00006588,-0.00002018,0.00010052,0.00000374,0.
 00008192,-0.00001545,-0.00000176,-0.00001212,-0.00001493,0.00000264,-0
 .00001070,-0.00003642,0.00001691,-0.00001930,-0.00021529,0.00001129,-0
 .00010844,0.00001132,0.00001629,0.00001604,-0.00004671,-0.00007589,0.0
 0000205,0.00003593,0.00001263,-0.00000627,-0.00372831,-0.00009952,0.00
 063570,0.00354070,0.00013125,-0.00111578,-0.00043650,-0.00210767,0.001
 01461,-0.00023427,-0.00004354,-0.00006873,0.00363775,-0.00179310,-0.00
 047824,-0.00721072,0.00660796,-0.00025624,-0.00995421,-0.03771278,0.02
 333176,-0.00094359,0.00107809,-0.00023158,-0.00144972,-0.00177973,0.00
 114356,-0.00984193,0.00512787,0.00090811,0.00144038,-0.00093290,0.0000
 9290,-0.10524927,-0.05215932,0.03538595,0.01508032,0.00103092,-0.00465
 949,0.01362660,0.02304574,-0.02148808,0.10103674,0.00008005,-0.0000640
 7,0.00002955,0.00010795,0.00002094,-0.00042385,0.00046403,0.00000894,0
 .00087368,-0.00016851,0.00001844,-0.00007414,0.00010138,-0.00004562,-0
 .00001087,0.00006729,0.00000726,0.00005497,-0.00000897,-0.00000164,-0.
 00000767,-0.00001044,0.00000091,-0.00000739,-0.00002552,0.00001139,-0.
 00001285,-0.00015443,0.00001014,-0.00007968,0.00000838,0.00001196,0.00
 001082,-0.00003337,-0.00005435,0.00000174,0.00002420,0.00000892,-0.000
 00465,-0.00266797,0.00001786,0.00040264,0.00261278,0.00002896,-0.00075
 399,-0.00082492,-0.00099366,0.00057970,-0.00041547,0.00029745,-0.00017
 815,0.00054518,-0.00695112,0.00265884,-0.00193583,0.00447277,-0.000501
 47,-0.01159843,-0.01466825,0.01450549,-0.00062250,0.00082033,-0.000200
 13,-0.00080457,-0.00092766,0.00049734,0.00841244,0.00243850,-0.0030197
 4,-0.00003921,-0.00019668,0.00023307,-0.05948323,-0.19355000,0.0763504
 4,-0.00674434,-0.08860900,-0.00451429,0.01342126,-0.01935346,0.0435505
 6,0.05969277,0.31724075,-0.00009229,0.00005487,-0.00002787,-0.00009116
 ,-0.00001204,0.00038731,-0.00041797,-0.00002343,-0.00079015,0.00015476
 ,-0.00001025,0.00006994,-0.00009380,0.00004110,0.00000960,-0.00006248,
 -0.00000434,-0.00005082,0.00000901,0.00000110,0.00000719,0.00000951,-0
 .00000142,0.00000684,0.00002292,-0.00001042,0.00001176,0.00013559,-0.0
 0000957,0.00007053,-0.00000732,-0.00000972,-0.00001019,0.00002998,0.00
 004860,-0.00000188,-0.00002218,-0.00000800,0.00000373,0.00237122,-0.00
 000544,-0.00043732,-0.00223784,0.00005274,0.00091295,0.00045663,0.0010
 0025,-0.00080929,0.00023318,-0.00023681,-0.00013631,-0.00164685,0.0033
 3432,-0.00208990,0.00371421,-0.00309324,0.00250898,0.01110601,0.022396
 71,-0.00521218,0.00056830,-0.00072782,0.00012430,0.00070001,0.00080701
 ,-0.00095176,-0.00061953,-0.00199905,0.00256878,-0.00032446,0.00050576
 ,0.00013870,0.03879132,0.07409615,-0.11569051,-0.00479855,-0.01683517,
 0.01838737,-0.01319511,0.05060808,-0.04940398,-0.03469311,-0.12995998,
 0.15040420\\-0.00000999,0.00001190,0.00001422,0.00001802,-0.00000480,-
 0.00000689,-0.00003259,0.00002241,-0.00001366,0.00001834,-0.00000939,0
 .00000615,-0.00000583,-0.00000321,-0.00000661,0.00001137,0.00000055,0.
 00001181,-0.00000018,0.00000745,0.00000583,-0.00000048,0.00000545,0.00
 000431,0.00000434,0.00000611,0.00000498,-0.00000983,-0.00000115,-0.000
 00794,-0.00000339,-0.00000211,-0.00001712,-0.00000228,0.00000047,-0.00
 000943,-0.00000739,-0.00000768,-0.00000801,-0.00000832,0.00001391,-0.0
 0000390,0.00004100,-0.00002380,0.00000975,-0.00000369,0.00002769,0.000
 00384,-0.00001581,-0.00000316,0.00000378,-0.00000216,0.00001272,0.0000
 0872,0.00000008,0.00000573,-0.00001919,-0.00002113,-0.00000293,0.00000
 298,0.00000497,-0.00001863,0.00001143,-0.00000260,-0.00000569,-0.00001
 184,-0.00001122,-0.00000330,0.00001517,0.00001657,-0.00000022,-0.00001
 493,-0.00002664,-0.00001138,-0.00001676,0.00001247,0.00002250,0.000011
 83,0.00001351,-0.00000666,0.00000797,0.00002284,-0.00003276,0.00001351
 \\\@


 KNOWLEDGE IS EXPERIMENT'S DAUGHTER.
 -- LEONARDO DA VINCI, IN "PENSIERI" CA. 1492
 Job cpu time:       0 days  6 hours  9 minutes 18.1 seconds.
 Elapsed time:       0 days  0 hours 23 minutes  5.2 seconds.
 File lengths (MBytes):  RWF=   1277 Int=      0 D2E=      0 Chk=     45 Scr=      1
 Normal termination of Gaussian 16 at Sat Jul  6 21:15:05 2024.
