 Entering Gaussian System, Link 0=g16
 Input=input.com
 Output=input.log
 Initial command:
 /share/apps/g16.b01_avx2/g16/l1.exe "/scratch/Gau-2961.inp" -scrdir="/scratch/"
 Entering Link 1 = /share/apps/g16.b01_avx2/g16/l1.exe PID=      2963.
  
 Copyright (c) 1988-2017, Gaussian, Inc.  All Rights Reserved.
  
 This is part of the Gaussian(R) 16 program.  It is based on
 the Gaussian(R) 09 system (copyright 2009, Gaussian, Inc.),
 the Gaussian(R) 03 system (copyright 2003, Gaussian, Inc.),
 the Gaussian(R) 98 system (copyright 1998, Gaussian, Inc.),
 the Gaussian(R) 94 system (copyright 1995, Gaussian, Inc.),
 the Gaussian 92(TM) system (copyright 1992, Gaussian, Inc.),
 the Gaussian 90(TM) system (copyright 1990, Gaussian, Inc.),
 the Gaussian 88(TM) system (copyright 1988, Gaussian, Inc.),
 the Gaussian 86(TM) system (copyright 1986, Carnegie Mellon
 University), and the Gaussian 82(TM) system (copyright 1983,
 Carnegie Mellon University). Gaussian is a federally registered
 trademark of Gaussian, Inc.
  
 This software contains proprietary and confidential information,
 including trade secrets, belonging to Gaussian, Inc.
  
 This software is provided under written license and may be
 used, copied, transmitted, or stored only in accord with that
 written license.
  
 The following legend is applicable only to US Government
 contracts under FAR:
  
                    RESTRICTED RIGHTS LEGEND
  
 Use, reproduction and disclosure by the US Government is
 subject to restrictions as set forth in subparagraphs (a)
 and (c) of the Commercial Computer Software - Restricted
 Rights clause in FAR 52.227-19.
  
 Gaussian, Inc.
 340 Quinnipiac St., Bldg. 40, Wallingford CT 06492
  
  
 ---------------------------------------------------------------
 Warning -- This program may not be used in any manner that
 competes with the business of Gaussian, Inc. or will provide
 assistance to any competitor of Gaussian, Inc.  The licensee
 of this program is prohibited from giving any competitor of
 Gaussian, Inc. access to this program.  By using this program,
 the user acknowledges that Gaussian, Inc. is engaged in the
 business of creating and licensing software in the field of
 computational chemistry and represents and warrants to the
 licensee that it is not a competitor of Gaussian, Inc. and that
 it will not use this program in any manner prohibited above.
 ---------------------------------------------------------------
  

 Cite this work as:
 Gaussian 16, Revision B.01,
 M. J. Frisch, G. W. Trucks, H. B. Schlegel, G. E. Scuseria, 
 M. A. Robb, J. R. Cheeseman, G. Scalmani, V. Barone, 
 G. A. Petersson, H. Nakatsuji, X. Li, M. Caricato, A. V. Marenich, 
 J. Bloino, B. G. Janesko, R. Gomperts, B. Mennucci, H. P. Hratchian, 
 J. V. Ortiz, A. F. Izmaylov, J. L. Sonnenberg, D. Williams-Young, 
 F. Ding, F. Lipparini, F. Egidi, J. Goings, B. Peng, A. Petrone, 
 T. Henderson, D. Ranasinghe, V. G. Zakrzewski, J. Gao, N. Rega, 
 G. Zheng, W. Liang, M. Hada, M. Ehara, K. Toyota, R. Fukuda, 
 J. Hasegawa, M. Ishida, T. Nakajima, Y. Honda, O. Kitao, H. Nakai, 
 T. Vreven, K. Throssell, J. A. Montgomery, Jr., J. E. Peralta, 
 F. Ogliaro, M. J. Bearpark, J. J. Heyd, E. N. Brothers, K. N. Kudin, 
 V. N. Staroverov, T. A. Keith, R. Kobayashi, J. Normand, 
 K. Raghavachari, A. P. Rendell, J. C. Burant, S. S. Iyengar, 
 J. Tomasi, M. Cossi, J. M. Millam, M. Klene, C. Adamo, R. Cammi, 
 J. W. Ochterski, R. L. Martin, K. Morokuma, O. Farkas, 
 J. B. Foresman, and D. J. Fox, Gaussian, Inc., Wallingford CT, 2016.
 
 ******************************************
 Gaussian 16:  ES64L-G16RevB.01 20-Dec-2017
                19-Aug-2024 
 ******************************************
 %nproc=24
 Will use up to   24 processors via shared memory.
 %mem=64GB
 ----------------------------------------------------------------------
 #P PBE1PBE/def2TZVP opt freq EmpiricalDispersion=GD3 Int=(grid=99590) 
 scrf=(iefpcm, solvent=water)
 ----------------------------------------------------------------------
 1/18=20,19=15,26=6,38=1/1,3;
 2/9=110,12=2,17=6,18=5,40=1/2;
 3/5=44,7=101,11=2,25=1,30=1,70=2201,71=1,72=1,74=-13,75=99590,124=31/1,2,3;
 4//1;
 5/5=2,38=5,53=1/2;
 6/7=2,8=2,9=2,10=2,28=1/1;
 7//1,2,3,16;
 1/18=20,19=15,26=6/3(2);
 2/9=110/2;
 99//99;
 2/9=110/2;
 3/5=44,7=101,11=2,25=1,30=1,70=2205,71=1,72=1,74=-13,75=99590,124=31/1,2,3;
 4/5=5,16=3,69=1/1;
 5/5=2,38=5,53=1/2;
 7//1,2,3,16;
 1/18=20,19=15,26=6/3(-5);
 2/9=110/2;
 6/7=2,8=2,9=2,10=2,19=2,28=1/1;
 99/9=1/99;
 Leave Link    1 at Mon Aug 19 14:14:13 2024, MaxMem=  8589934592 cpu:               1.0 elap:               0.1
 (Enter /share/apps/g16.b01_avx2/g16/l101.exe)
 ---------------------
 pfp_ester-oh reactant
 ---------------------
 Symbolic Z-matrix:
 Charge =  0 Multiplicity = 1
 O                     2.46439   0.53707  -1.37593 
 C                     1.86681  -0.47841  -1.09724 
 O                     0.47932  -0.64068  -1.3443 
 C                    -0.72373  -0.40231  -0.80204 
 C                    -1.30214  -1.30717   0.09298 
 C                    -1.42081   0.7569   -1.14863 
 C                    -2.54434  -1.03714   0.65 
 C                    -2.66282   1.01623  -0.5836 
 C                    -3.22613   0.12648   0.31964 
 F                    -0.76455  -2.21863   0.32899 
 F                    -0.97247   1.42743  -1.87401 
 F                    -2.98773  -1.74567   1.34105 
 F                    -3.19785   1.91802  -0.85988 
 F                    -4.19864   0.32973   0.75143 
 C                     2.41727  -1.6309   -0.23681 
 H                     1.83434  -2.55353  -0.47549 
 H                     2.24465  -1.37741   0.83741 
 O                     3.80988  -1.83204  -0.49191 
 H                     4.14127  -2.53333   0.07374 
 
 ITRead=  0  0  0  0  0  0  0  0  0  0  0  0  0  0  0  0  0  0  0
 MicOpt= -1 -1 -1 -1 -1 -1 -1 -1 -1 -1 -1 -1 -1 -1 -1 -1 -1 -1 -1
 NAtoms=     19 NQM=       19 NQMF=       0 NMMI=      0 NMMIF=      0
                NMic=       0 NMicF=      0.
                    Isotopes and Nuclear Properties:
 (Nuclear quadrupole moments (NQMom) in fm**2, nuclear magnetic moments (NMagM)
  in nuclear magnetons)

  Atom         1           2           3           4           5           6           7           8           9          10
 IAtWgt=          16          12          16          12          12          12          12          12          12          19
 AtmWgt=  15.9949146  12.0000000  15.9949146  12.0000000  12.0000000  12.0000000  12.0000000  12.0000000  12.0000000  18.9984032
 NucSpn=           0           0           0           0           0           0           0           0           0           1
 AtZEff=  -0.0000000  -0.0000000  -0.0000000  -0.0000000  -0.0000000  -0.0000000  -0.0000000  -0.0000000  -0.0000000  -0.0000000
 NQMom=    0.0000000   0.0000000   0.0000000   0.0000000   0.0000000   0.0000000   0.0000000   0.0000000   0.0000000   0.0000000
 NMagM=    0.0000000   0.0000000   0.0000000   0.0000000   0.0000000   0.0000000   0.0000000   0.0000000   0.0000000   2.6288670
 AtZNuc=   8.0000000   6.0000000   8.0000000   6.0000000   6.0000000   6.0000000   6.0000000   6.0000000   6.0000000   9.0000000

  Atom        11          12          13          14          15          16          17          18          19
 IAtWgt=          19          19          19          19          12           1           1          16           1
 AtmWgt=  18.9984032  18.9984032  18.9984032  18.9984032  12.0000000   1.0078250   1.0078250  15.9949146   1.0078250
 NucSpn=           1           1           1           1           0           1           1           0           1
 AtZEff=  -0.0000000  -0.0000000  -0.0000000  -0.0000000  -0.0000000  -0.0000000  -0.0000000  -0.0000000  -0.0000000
 NQMom=    0.0000000   0.0000000   0.0000000   0.0000000   0.0000000   0.0000000   0.0000000   0.0000000   0.0000000
 NMagM=    2.6288670   2.6288670   2.6288670   2.6288670   0.0000000   2.7928460   2.7928460   0.0000000   2.7928460
 AtZNuc=   9.0000000   9.0000000   9.0000000   9.0000000   6.0000000   1.0000000   1.0000000   8.0000000   1.0000000
 Leave Link  101 at Mon Aug 19 14:14:13 2024, MaxMem=  8589934592 cpu:               7.6 elap:               0.3
 (Enter /share/apps/g16.b01_avx2/g16/l103.exe)

 GradGradGradGradGradGradGradGradGradGradGradGradGradGradGradGradGradGrad
 Berny optimization.
 Initialization pass.
                           ----------------------------
                           !    Initial Parameters    !
                           ! (Angstroms and Degrees)  !
 --------------------------                            --------------------------
 ! Name  Definition              Value          Derivative Info.                !
 --------------------------------------------------------------------------------
 ! R1    R(1,2)                  1.2108         estimate D2E/DX2                !
 ! R2    R(2,3)                  1.4186         estimate D2E/DX2                !
 ! R3    R(2,15)                 1.54           estimate D2E/DX2                !
 ! R4    R(3,4)                  1.341          estimate D2E/DX2                !
 ! R5    R(4,5)                  1.398          estimate D2E/DX2                !
 ! R6    R(4,6)                  1.3964         estimate D2E/DX2                !
 ! R7    R(5,7)                  1.3879         estimate D2E/DX2                !
 ! R8    R(5,10)                 1.0842         estimate D2E/DX2                !
 ! R9    R(6,8)                  1.3889         estimate D2E/DX2                !
 ! R10   R(6,11)                 1.0848         estimate D2E/DX2                !
 ! R11   R(7,9)                  1.3885         estimate D2E/DX2                !
 ! R12   R(7,12)                 1.0845         estimate D2E/DX2                !
 ! R13   R(8,9)                  1.3874         estimate D2E/DX2                !
 ! R14   R(8,13)                 1.0844         estimate D2E/DX2                !
 ! R15   R(9,14)                 1.0833         estimate D2E/DX2                !
 ! R16   R(15,16)                1.1171         estimate D2E/DX2                !
 ! R17   R(15,17)                1.1171         estimate D2E/DX2                !
 ! R18   R(15,18)                1.43           estimate D2E/DX2                !
 ! R19   R(18,19)                0.96           estimate D2E/DX2                !
 ! A1    A(1,2,3)              122.5868         estimate D2E/DX2                !
 ! A2    A(1,2,15)             125.44           estimate D2E/DX2                !
 ! A3    A(3,2,15)             111.1796         estimate D2E/DX2                !
 ! A4    A(2,3,4)              141.8784         estimate D2E/DX2                !
 ! A5    A(3,4,5)              120.9994         estimate D2E/DX2                !
 ! A6    A(3,4,6)              119.6742         estimate D2E/DX2                !
 ! A7    A(5,4,6)              119.3201         estimate D2E/DX2                !
 ! A8    A(4,5,7)              120.0882         estimate D2E/DX2                !
 ! A9    A(4,5,10)             118.5773         estimate D2E/DX2                !
 ! A10   A(7,5,10)             121.3317         estimate D2E/DX2                !
 ! A11   A(4,6,8)              120.0286         estimate D2E/DX2                !
 ! A12   A(4,6,11)             118.2151         estimate D2E/DX2                !
 ! A13   A(8,6,11)             121.7493         estimate D2E/DX2                !
 ! A14   A(5,7,9)              120.4664         estimate D2E/DX2                !
 ! A15   A(5,7,12)             119.64           estimate D2E/DX2                !
 ! A16   A(9,7,12)             119.8913         estimate D2E/DX2                !
 ! A17   A(6,8,9)              120.5439         estimate D2E/DX2                !
 ! A18   A(6,8,13)             119.5276         estimate D2E/DX2                !
 ! A19   A(9,8,13)             119.9262         estimate D2E/DX2                !
 ! A20   A(7,9,8)              119.5359         estimate D2E/DX2                !
 ! A21   A(7,9,14)             120.2123         estimate D2E/DX2                !
 ! A22   A(8,9,14)             120.2436         estimate D2E/DX2                !
 ! A23   A(2,15,16)            108.191          estimate D2E/DX2                !
 ! A24   A(2,15,17)            108.1922         estimate D2E/DX2                !
 ! A25   A(2,15,18)            110.7128         estimate D2E/DX2                !
 ! A26   A(16,15,17)           108.193          estimate D2E/DX2                !
 ! A27   A(16,15,18)           110.7248         estimate D2E/DX2                !
 ! A28   A(17,15,18)           110.7282         estimate D2E/DX2                !
 ! A29   A(15,18,19)           109.5            estimate D2E/DX2                !
 ! D1    D(1,2,3,4)            -85.9304         estimate D2E/DX2                !
 ! D2    D(15,2,3,4)            84.3716         estimate D2E/DX2                !
 ! D3    D(1,2,15,16)         -158.4718         estimate D2E/DX2                !
 ! D4    D(1,2,15,17)           84.5322         estimate D2E/DX2                !
 ! D5    D(1,2,15,18)          -36.9723         estimate D2E/DX2                !
 ! D6    D(3,2,15,16)           31.5611         estimate D2E/DX2                !
 ! D7    D(3,2,15,17)          -85.4348         estimate D2E/DX2                !
 ! D8    D(3,2,15,18)          153.0606         estimate D2E/DX2                !
 ! D9    D(2,3,4,5)            -85.8856         estimate D2E/DX2                !
 ! D10   D(2,3,4,6)             95.0324         estimate D2E/DX2                !
 ! D11   D(3,4,5,7)            179.5638         estimate D2E/DX2                !
 ! D12   D(3,4,5,10)            -1.0349         estimate D2E/DX2                !
 ! D13   D(6,4,5,7)             -1.351          estimate D2E/DX2                !
 ! D14   D(6,4,5,10)           178.0503         estimate D2E/DX2                !
 ! D15   D(3,4,6,8)           -179.5041         estimate D2E/DX2                !
 ! D16   D(3,4,6,11)             1.4427         estimate D2E/DX2                !
 ! D17   D(5,4,6,8)              1.3984         estimate D2E/DX2                !
 ! D18   D(5,4,6,11)          -177.6548         estimate D2E/DX2                !
 ! D19   D(4,5,7,9)              0.3569         estimate D2E/DX2                !
 ! D20   D(4,5,7,12)           179.8039         estimate D2E/DX2                !
 ! D21   D(10,5,7,9)          -179.0275         estimate D2E/DX2                !
 ! D22   D(10,5,7,12)            0.4194         estimate D2E/DX2                !
 ! D23   D(4,6,8,9)             -0.454          estimate D2E/DX2                !
 ! D24   D(4,6,8,13)          -179.8923         estimate D2E/DX2                !
 ! D25   D(11,6,8,9)           178.5648         estimate D2E/DX2                !
 ! D26   D(11,6,8,13)           -0.8734         estimate D2E/DX2                !
 ! D27   D(5,7,9,8)              0.5978         estimate D2E/DX2                !
 ! D28   D(5,7,9,14)           179.5632         estimate D2E/DX2                !
 ! D29   D(12,7,9,8)          -178.8477         estimate D2E/DX2                !
 ! D30   D(12,7,9,14)            0.1177         estimate D2E/DX2                !
 ! D31   D(6,8,9,7)             -0.5496         estimate D2E/DX2                !
 ! D32   D(6,8,9,14)          -179.5147         estimate D2E/DX2                !
 ! D33   D(13,8,9,7)           178.8864         estimate D2E/DX2                !
 ! D34   D(13,8,9,14)           -0.0787         estimate D2E/DX2                !
 ! D35   D(2,15,18,19)         178.1183         estimate D2E/DX2                !
 ! D36   D(16,15,18,19)        -61.8872         estimate D2E/DX2                !
 ! D37   D(17,15,18,19)         58.12           estimate D2E/DX2                !
 --------------------------------------------------------------------------------
 Trust Radius=3.00D-01 FncErr=5.00D-06 GrdErr=5.00D-06 EigMax=2.50D+02 EigMin=1.00D-04
 Number of steps in this run=     95 maximum allowed number of steps=    114.
 GradGradGradGradGradGradGradGradGradGradGradGradGradGradGradGradGradGrad

 Leave Link  103 at Mon Aug 19 14:14:14 2024, MaxMem=  8589934592 cpu:               0.4 elap:               0.0
 (Enter /share/apps/g16.b01_avx2/g16/l202.exe)
                          Input orientation:                          
 ---------------------------------------------------------------------
 Center     Atomic      Atomic             Coordinates (Angstroms)
 Number     Number       Type             X           Y           Z
 ---------------------------------------------------------------------
      1          8           0        2.464389    0.537069   -1.375930
      2          6           0        1.866806   -0.478406   -1.097239
      3          8           0        0.479317   -0.640683   -1.344295
      4          6           0       -0.723725   -0.402315   -0.802038
      5          6           0       -1.302139   -1.307166    0.092985
      6          6           0       -1.420810    0.756902   -1.148634
      7          6           0       -2.544342   -1.037141    0.650002
      8          6           0       -2.662817    1.016226   -0.583597
      9          6           0       -3.226132    0.126482    0.319645
     10          9           0       -0.764552   -2.218634    0.328987
     11          9           0       -0.972465    1.427425   -1.874008
     12          9           0       -2.987730   -1.745669    1.341053
     13          9           0       -3.197850    1.918018   -0.859882
     14          9           0       -4.198639    0.329734    0.751434
     15          6           0        2.417267   -1.630904   -0.236807
     16          1           0        1.834340   -2.553533   -0.475485
     17          1           0        2.244648   -1.377407    0.837411
     18          8           0        3.809878   -1.832037   -0.491912
     19          1           0        4.141267   -2.533335    0.073740
 ---------------------------------------------------------------------
                    Distance matrix (angstroms):
                    1          2          3          4          5
     1  O    0.000000
     2  C    1.210770   0.000000
     3  O    2.308379   1.418625   0.000000
     4  C    3.372813   2.608406   1.340959   0.000000
     5  C    4.443607   3.485066   2.384022   1.397993   0.000000
     6  C    3.898046   3.512413   2.366856   1.396367   2.411654
     7  C    5.627604   4.777370   3.643750   2.413725   1.387894
     8  C    5.210146   4.797420   3.632770   2.412479   2.776213
     9  C    5.951940   5.320852   4.133714   2.792819   2.410077
    10  F    4.574571   3.462161   2.614768   2.140070   1.084191
    11  F    3.585078   3.506711   2.581731   2.135167   3.384632
    12  F    6.505266   5.578328   4.522444   3.394578   2.142703
    13  F    5.851006   5.608024   4.505903   3.392431   3.860504
    14  F    6.997472   6.392207   5.216997   3.876106   3.391564
    15  C    2.449475   1.540000   2.441867   3.419758   3.748006
    16  H    3.280181   2.166514   2.499983   3.358285   3.422586
    17  H    2.934686   2.166526   2.901551   3.528433   3.624749
    18  O    2.864349   2.444231   3.638478   4.763806   5.172071
    19  H    3.786931   3.281326   4.359224   5.382972   5.579833
                    6          7          8          9         10
     6  C    0.000000
     7  C    2.777770   0.000000
     8  C    1.388919   2.398358   0.000000
     9  C    2.410904   1.388521   1.387377   0.000000
    10  F    3.386422   2.160238   3.860122   3.399858   0.000000
    11  F    1.084796   3.862060   2.165995   3.403466   4.264992
    12  F    3.862207   1.084507   3.381998   2.145940   2.488070
    13  F    2.142298   3.382275   1.084354   2.145154   4.944314
    14  F    3.392501   2.148333   2.147633   1.083293   4.297161
    15  C    4.611277   5.075091   5.738886   5.936834   3.284741
    16  H    4.691281   4.768546   5.742760   5.781271   2.741090
    17  H    4.683507   4.804720   5.641982   5.697298   3.165667
    18  O    5.873159   6.504763   7.072255   7.348460   4.663555
    19  H    6.576972   6.875176   7.702405   7.836687   4.922525
                   11         12         13         14         15
    11  F    0.000000
    12  F    4.946356   0.000000
    13  F    2.494288   4.279120   0.000000
    14  F    4.301868   2.474116   2.473977   0.000000
    15  C    4.850163   5.631767   6.671777   6.970720   0.000000
    16  H    5.067747   5.215824   6.742809   6.798191   1.117146
    17  H    5.056550   5.269446   6.584939   6.666159   1.117140
    18  O    5.950218   7.040930   7.956543   8.387819   1.430000
    19  H    6.755117   7.283481   8.634167   8.843668   1.970533
                   16         17         18         19
    16  H    0.000000
    17  H    1.809785   0.000000
    18  O    2.103230   2.103267   0.000000
    19  H    2.371491   2.348729   0.960000   0.000000
 Stoichiometry    C8H3F5O3
 Framework group  C1[X(C8H3F5O3)]
 Deg. of freedom    51
 Full point group                 C1      NOp   1
 Largest Abelian subgroup         C1      NOp   1
 Largest concise Abelian subgroup C1      NOp   1
                         Standard orientation:                         
 ---------------------------------------------------------------------
 Center     Atomic      Atomic             Coordinates (Angstroms)
 Number     Number       Type             X           Y           Z
 ---------------------------------------------------------------------
      1          8           0        3.049322    1.654865    0.468897
      2          6           0        2.670291    0.601345    0.008031
      3          8           0        1.409746    0.454081   -0.625873
      4          6           0        0.118510    0.206968   -0.361645
      5          6           0       -0.357517   -1.103505   -0.259451
      6          6           0       -0.770995    1.271800   -0.204307
      7          6           0       -1.695923   -1.337518    0.023673
      8          6           0       -2.107890    1.024528    0.079709
      9          6           0       -2.574107   -0.276589    0.200342
     10          9           0        0.337084   -1.921232   -0.415410
     11          9           0       -0.390236    2.280325   -0.325473
     12          9           0       -2.058080   -2.357053    0.098151
     13          9           0       -2.791922    1.857478    0.198527
     14          9           0       -3.619410   -0.464011    0.414206
     15          6           0        3.342452   -0.765650    0.234137
     16          1           0        3.031219   -1.448467   -0.593456
     17          1           0        2.961158   -1.186962    1.195965
     18          8           0        4.765531   -0.629767    0.269951
     19          1           0        5.164987   -1.485838    0.440761
 ---------------------------------------------------------------------
 Rotational constants (GHZ):           0.9901719           0.3386760           0.2592166
 Leave Link  202 at Mon Aug 19 14:14:14 2024, MaxMem=  8589934592 cpu:               0.2 elap:               0.0
 (Enter /share/apps/g16.b01_avx2/g16/l301.exe)
 Standard basis: def2TZVP (5D, 7F)
 Ernie: Thresh=  0.10000D-02 Tol=  0.10000D-05 Strict=F.
 There are   594 symmetry adapted cartesian basis functions of A   symmetry.
 There are   514 symmetry adapted basis functions of A   symmetry.
   514 basis functions,   840 primitive gaussians,   594 cartesian basis functions
    60 alpha electrons       60 beta electrons
       nuclear repulsion energy      1204.5608072896 Hartrees.
 IExCor= 1009 DFT=T Ex+Corr=PBE1PBE ExCW=0 ScaHFX=  0.250000
 ScaDFX=  0.750000  0.750000  1.000000  1.000000 ScalE2=  1.000000  1.000000
 IRadAn=  99590 IRanWt=     -1 IRanGd=            0 ICorTp=0 IEmpDi=131
 NAtoms=   19 NActive=   19 NUniq=   19 SFac= 1.00D+00 NAtFMM=   60 NAOKFM=F Big=F
 Integral buffers will be    131072 words long.
 Raffenetti 2 integral format.
 Two-electron integral symmetry is turned on.
 R6Disp:  Grimme-D3 Dispersion energy=       -0.0094579946 Hartrees.
 Nuclear repulsion after empirical dispersion term =     1204.5513492951 Hartrees.
 ------------------------------------------------------------------------------
 Polarizable Continuum Model (PCM)
 =================================
 Model                : PCM.
 Atomic radii         : UFF (Universal Force Field).
 Polarization charges : Total charges.
 Charge compensation  : None.
 Solution method      : On-the-fly selection.
 Cavity type          : Scaled VdW (van der Waals Surface) (Alpha=1.100).
 Cavity algorithm     : GePol (No added spheres)
                        Default sphere list used, NSphG=   19.
                        Lebedev-Laikov grids with approx.  5.0 points / Ang**2.
                        Smoothing algorithm: York/Karplus (Gamma=1.0000).
                        Polarization charges: spherical gaussians, with
                                              point-specific exponents (IZeta= 3).
                        Self-potential: point-specific (ISelfS= 7).
                        Self-field    : sphere-specific E.n sum rule (ISelfD= 2).
 1st derivatives      : Analytical E(r).r(x)/FMM algorithm (CHGder, D1EAlg=3).
                        Cavity 1st derivative terms included.
 Solvent              : Water, Eps=  78.355300 Eps(inf)=   1.777849
 ------------------------------------------------------------------------------
 Spheres list:
 ISph  on   Nord     Re0    Alpha      Xe            Ye            Ze
    1   O      1    1.7500  1.100      3.049322      1.654865      0.468897
    2   C      2    1.9255  1.100      2.670291      0.601345      0.008031
    3   O      3    1.7500  1.100      1.409746      0.454081     -0.625873
    4   C      4    1.9255  1.100      0.118510      0.206968     -0.361645
    5   C      5    1.9255  1.100     -0.357517     -1.103505     -0.259451
    6   C      6    1.9255  1.100     -0.770995      1.271800     -0.204307
    7   C      7    1.9255  1.100     -1.695923     -1.337518      0.023673
    8   C      8    1.9255  1.100     -2.107890      1.024528      0.079709
    9   C      9    1.9255  1.100     -2.574107     -0.276589      0.200342
   10   F     10    1.6820  1.100      0.337084     -1.921232     -0.415410
   11   F     11    1.6820  1.100     -0.390236      2.280325     -0.325473
   12   F     12    1.6820  1.100     -2.058080     -2.357053      0.098151
   13   F     13    1.6820  1.100     -2.791922      1.857478      0.198527
   14   F     14    1.6820  1.100     -3.619410     -0.464011      0.414206
   15   C     15    1.9255  1.100      3.342452     -0.765650      0.234137
   16   H     16    1.4430  1.100      3.031219     -1.448467     -0.593456
   17   H     17    1.4430  1.100      2.961158     -1.186962      1.195965
   18   O     18    1.7500  1.100      4.765531     -0.629767      0.269951
   19   H     19    1.4430  1.100      5.164987     -1.485838      0.440761
 ------------------------------------------------------------------------------
 GePol: Number of generator spheres                  =      19
 GePol: Total number of spheres                      =      19
 GePol: Number of exposed spheres                    =      19 (100.00%)
 GePol: Number of points                             =    1931
 GePol: Average weight of points                     =       0.12
 GePol: Minimum weight of points                     =   0.73D-10
 GePol: Maximum weight of points                     =    0.20577
 GePol: Number of points with low weight             =     102
 GePol: Fraction of low-weight points (<1% of avg)   =       5.28%
 GePol: Cavity surface area                          =    236.482 Ang**2
 GePol: Cavity volume                                =    237.914 Ang**3
 Leave Link  301 at Mon Aug 19 14:14:14 2024, MaxMem=  8589934592 cpu:               1.6 elap:               0.1
 (Enter /share/apps/g16.b01_avx2/g16/l302.exe)
 NPDir=0 NMtPBC=     1 NCelOv=     1 NCel=       1 NClECP=     1 NCelD=      1
         NCelK=      1 NCelE2=     1 NClLst=     1 CellRange=     0.0.
 One-electron integrals computed using PRISM.
 One-electron integral symmetry used in STVInt
   1 Symmetry operations used in ECPInt.
 ECPInt:  NShTT=   17766 NPrTT=   57652 LenC2=   15667 LenP2D=   36643.
 LDataN:  DoStor=T MaxTD1= 6 Len=  172
 NBasis=   514 RedAO= T EigKep=  1.66D-05  NBF=   514
 NBsUse=   514 1.00D-06 EigRej= -1.00D+00 NBFU=   514
 Precomputing XC quadrature grid using
 IXCGrd= 4 IRadAn=       99590 IRanWt=          -1 IRanGd=           0 AccXCQ= 0.00D+00.
 Generated NRdTot=       0 NPtTot=           0 NUsed=           0 NTot=          32
 NSgBfM=   584   584   584   584   584 MxSgAt=    19 MxSgA2=    19.
 Leave Link  302 at Mon Aug 19 14:14:15 2024, MaxMem=  8589934592 cpu:               9.9 elap:               0.4
 (Enter /share/apps/g16.b01_avx2/g16/l303.exe)
 DipDrv:  MaxL=1.
 Leave Link  303 at Mon Aug 19 14:14:15 2024, MaxMem=  8589934592 cpu:               1.5 elap:               0.1
 (Enter /share/apps/g16.b01_avx2/g16/l401.exe)
 ExpMin= 9.52D-02 ExpMax= 3.55D+04 ExpMxC= 1.21D+03 IAcc=4 IRadAn=    199590 AccDes= 0.00D+00
 Harris functional with IExCor= 1009 and IRadAn=  199590 diagonalized for initial guess.
 HarFok:  IExCor= 1009 AccDes= 0.00D+00 IRadAn=    199590 IDoV= 1 UseB2=F ITyADJ=14
 ICtDFT=  3500011 ScaDFX=  1.000000  1.000000  1.000000  1.000000
 FoFCou: FMM=F IPFlag=           0 FMFlag=      100000 FMFlg1=           0
         NFxFlg=           0 DoJE=T BraDBF=F KetDBF=T FulRan=T
         wScrn=  0.000000 ICntrl=       500 IOpCl=  0 I1Cent=   200000004 NGrid=           0
         NMat0=    1 NMatS0=      1 NMatT0=    0 NMatD0=    1 NMtDS0=    0 NMtDT0=    0
 Petite list used in FoFCou.
 Harris En= -1030.50220983700    
 JPrj=0 DoOrth=F DoCkMO=F.
 Leave Link  401 at Mon Aug 19 14:14:17 2024, MaxMem=  8589934592 cpu:              54.9 elap:               2.3
 (Enter /share/apps/g16.b01_avx2/g16/l502.exe)
 Integral symmetry usage will be decided dynamically.
 Closed shell SCF:
 Using DIIS extrapolation, IDIIS=  1040.
 NGot=  8589934592 LenX=  8589209643 LenY=  8588856213
 Requested convergence on RMS density matrix=1.00D-08 within 128 cycles.
 Requested convergence on MAX density matrix=1.00D-06.
 Requested convergence on             energy=1.00D-06.
 No special actions if energy rises.
 Fock matrices will be formed incrementally for  20 cycles.

 Cycle   1  Pass 1  IDiag  1:
 FoFJK:  IHMeth= 1 ICntrl=       0 DoSepK=F KAlg= 0 I1Cent=           0 FoldK=F
 IRaf= 830000000 NMat=       1 IRICut=       1 DoRegI=T DoRafI=F ISym2E= 0 IDoP0=0 IntGTp=1.
 FoFCou: FMM=F IPFlag=           0 FMFlag=      100000 FMFlg1=           0
         NFxFlg=           0 DoJE=F BraDBF=F KetDBF=F FulRan=T
         wScrn=  0.000000 ICntrl=         0 IOpCl=  0 I1Cent=           0 NGrid=           0
         NMat0=    1 NMatS0=      1 NMatT0=    0 NMatD0=    1 NMtDS0=    0 NMtDT0=    0
 Symmetry not used in FoFCou.
 Inv3:  Mode=1 IEnd=    11186283.
 Iteration    1 A*A^-1 deviation from unit magnitude is 3.22D-15 for    372.
 Iteration    1 A*A^-1 deviation from orthogonality  is 2.46D-15 for   1090    105.
 Iteration    1 A^-1*A deviation from unit magnitude is 2.78D-15 for    372.
 Iteration    1 A^-1*A deviation from orthogonality  is 2.11D-15 for   1808   1645.
 E= -1030.17164074332    
 DIIS: error= 1.83D-02 at cycle   1 NSaved=   1.
 NSaved= 1 IEnMin= 1 EnMin= -1030.17164074332     IErMin= 1 ErrMin= 1.83D-02
 ErrMax= 1.83D-02  0.00D+00 EMaxC= 1.00D-01 BMatC= 3.63D-01 BMatP= 3.63D-01
 IDIUse=3 WtCom= 8.17D-01 WtEn= 1.83D-01
 Coeff-Com:  0.100D+01
 Coeff-En:   0.100D+01
 Coeff:      0.100D+01
 Gap=     0.090 Goal=   None    Shift=    0.000
 GapD=    0.090 DampG=0.500 DampE=0.500 DampFc=0.2500 IDamp=-1.
 Damping current iteration by 2.50D-01
 RMSDP=2.86D-03 MaxDP=2.75D-01              OVMax= 2.00D-01

 Cycle   2  Pass 1  IDiag  1:
 RMSU=  7.12D-04    CP:  1.01D+00
 E= -1030.25600230901     Delta-E=       -0.084361565692 Rises=F Damp=T
 DIIS: error= 1.14D-02 at cycle   2 NSaved=   2.
 NSaved= 2 IEnMin= 2 EnMin= -1030.25600230901     IErMin= 2 ErrMin= 1.14D-02
 ErrMax= 1.14D-02  0.00D+00 EMaxC= 1.00D-01 BMatC= 1.04D-01 BMatP= 3.63D-01
 IDIUse=3 WtCom= 8.86D-01 WtEn= 1.14D-01
 Coeff-Com: -0.830D+00 0.183D+01
 Coeff-En:   0.000D+00 0.100D+01
 Coeff:     -0.735D+00 0.174D+01
 Gap=     0.134 Goal=   None    Shift=    0.000
 RMSDP=8.32D-04 MaxDP=6.03D-02 DE=-8.44D-02 OVMax= 1.59D-01

 Cycle   3  Pass 1  IDiag  1:
 RMSU=  5.66D-04    CP:  1.01D+00  1.86D+00
 E= -1030.38775065608     Delta-E=       -0.131748347071 Rises=F Damp=F
 DIIS: error= 7.06D-03 at cycle   3 NSaved=   3.
 NSaved= 3 IEnMin= 3 EnMin= -1030.38775065608     IErMin= 3 ErrMin= 7.06D-03
 ErrMax= 7.06D-03  0.00D+00 EMaxC= 1.00D-01 BMatC= 3.46D-02 BMatP= 1.04D-01
 IDIUse=3 WtCom= 9.29D-01 WtEn= 7.06D-02
 Coeff-Com: -0.513D+00 0.977D+00 0.536D+00
 Coeff-En:   0.000D+00 0.000D+00 0.100D+01
 Coeff:     -0.477D+00 0.908D+00 0.569D+00
 Gap=     0.155 Goal=   None    Shift=    0.000
 RMSDP=4.85D-04 MaxDP=4.71D-02 DE=-1.32D-01 OVMax= 5.57D-02

 Cycle   4  Pass 1  IDiag  1:
 RMSU=  3.53D-04    CP:  1.00D+00  1.52D+00  6.14D-01
 E= -1030.40908731844     Delta-E=       -0.021336662361 Rises=F Damp=F
 DIIS: error= 2.65D-03 at cycle   4 NSaved=   4.
 NSaved= 4 IEnMin= 4 EnMin= -1030.40908731844     IErMin= 4 ErrMin= 2.65D-03
 ErrMax= 2.65D-03  0.00D+00 EMaxC= 1.00D-01 BMatC= 5.96D-03 BMatP= 3.46D-02
 IDIUse=3 WtCom= 9.73D-01 WtEn= 2.65D-02
 Coeff-Com: -0.154D+00 0.276D+00 0.324D+00 0.554D+00
 Coeff-En:   0.000D+00 0.000D+00 0.148D+00 0.852D+00
 Coeff:     -0.150D+00 0.269D+00 0.319D+00 0.562D+00
 Gap=     0.152 Goal=   None    Shift=    0.000
 RMSDP=1.32D-04 MaxDP=8.13D-03 DE=-2.13D-02 OVMax= 2.11D-02

 Cycle   5  Pass 1  IDiag  1:
 RMSU=  9.36D-05    CP:  1.00D+00  1.55D+00  7.22D-01  8.12D-01
 E= -1030.41293022661     Delta-E=       -0.003842908162 Rises=F Damp=F
 DIIS: error= 6.36D-04 at cycle   5 NSaved=   5.
 NSaved= 5 IEnMin= 5 EnMin= -1030.41293022661     IErMin= 5 ErrMin= 6.36D-04
 ErrMax= 6.36D-04  0.00D+00 EMaxC= 1.00D-01 BMatC= 6.92D-04 BMatP= 5.96D-03
 IDIUse=3 WtCom= 9.94D-01 WtEn= 6.36D-03
 Coeff-Com: -0.265D-01 0.396D-01 0.123D+00 0.336D+00 0.528D+00
 Coeff-En:   0.000D+00 0.000D+00 0.000D+00 0.625D-01 0.937D+00
 Coeff:     -0.263D-01 0.393D-01 0.122D+00 0.335D+00 0.530D+00
 Gap=     0.152 Goal=   None    Shift=    0.000
 RMSDP=5.06D-05 MaxDP=4.39D-03 DE=-3.84D-03 OVMax= 6.13D-03

 Cycle   6  Pass 1  IDiag  1:
 RMSU=  1.63D-05    CP:  1.01D+00  1.57D+00  7.20D-01  8.02D-01  5.39D-01
 E= -1030.41341038223     Delta-E=       -0.000480155619 Rises=F Damp=F
 DIIS: error= 1.10D-04 at cycle   6 NSaved=   6.
 NSaved= 6 IEnMin= 6 EnMin= -1030.41341038223     IErMin= 6 ErrMin= 1.10D-04
 ErrMax= 1.10D-04  0.00D+00 EMaxC= 1.00D-01 BMatC= 1.51D-05 BMatP= 6.92D-04
 IDIUse=3 WtCom= 9.99D-01 WtEn= 1.10D-03
 Coeff-Com: -0.640D-02 0.788D-02 0.417D-01 0.123D+00 0.236D+00 0.598D+00
 Coeff-En:   0.000D+00 0.000D+00 0.000D+00 0.000D+00 0.000D+00 0.100D+01
 Coeff:     -0.639D-02 0.788D-02 0.416D-01 0.123D+00 0.236D+00 0.598D+00
 Gap=     0.152 Goal=   None    Shift=    0.000
 RMSDP=8.59D-06 MaxDP=4.01D-04 DE=-4.80D-04 OVMax= 1.46D-03

 Cycle   7  Pass 1  IDiag  1:
 RMSU=  5.99D-06    CP:  1.01D+00  1.57D+00  7.22D-01  8.00D-01  5.58D-01
                    CP:  6.50D-01
 E= -1030.41342198479     Delta-E=       -0.000011602566 Rises=F Damp=F
 DIIS: error= 4.01D-05 at cycle   7 NSaved=   7.
 NSaved= 7 IEnMin= 7 EnMin= -1030.41342198479     IErMin= 7 ErrMin= 4.01D-05
 ErrMax= 4.01D-05  0.00D+00 EMaxC= 1.00D-01 BMatC= 1.70D-06 BMatP= 1.51D-05
 IDIUse=1 WtCom= 1.00D+00 WtEn= 0.00D+00
 Coeff-Com: -0.798D-03 0.517D-03 0.829D-02 0.260D-01 0.635D-01 0.296D+00
 Coeff-Com:  0.606D+00
 Coeff:     -0.798D-03 0.517D-03 0.829D-02 0.260D-01 0.635D-01 0.296D+00
 Coeff:      0.606D+00
 Gap=     0.152 Goal=   None    Shift=    0.000
 RMSDP=3.07D-06 MaxDP=1.16D-04 DE=-1.16D-05 OVMax= 4.29D-04

 Cycle   8  Pass 1  IDiag  1:
 RMSU=  1.56D-06    CP:  1.01D+00  1.57D+00  7.22D-01  8.01D-01  5.58D-01
                    CP:  7.68D-01  7.19D-01
 E= -1030.41342334743     Delta-E=       -0.000001362640 Rises=F Damp=F
 DIIS: error= 9.49D-06 at cycle   8 NSaved=   8.
 NSaved= 8 IEnMin= 8 EnMin= -1030.41342334743     IErMin= 8 ErrMin= 9.49D-06
 ErrMax= 9.49D-06  0.00D+00 EMaxC= 1.00D-01 BMatC= 1.27D-07 BMatP= 1.70D-06
 IDIUse=1 WtCom= 1.00D+00 WtEn= 0.00D+00
 Coeff-Com:  0.731D-04-0.309D-03 0.681D-03 0.255D-02 0.128D-01 0.944D-01
 Coeff-Com:  0.279D+00 0.611D+00
 Coeff:      0.731D-04-0.309D-03 0.681D-03 0.255D-02 0.128D-01 0.944D-01
 Coeff:      0.279D+00 0.611D+00
 Gap=     0.152 Goal=   None    Shift=    0.000
 RMSDP=7.58D-07 MaxDP=3.17D-05 DE=-1.36D-06 OVMax= 1.10D-04

 Cycle   9  Pass 1  IDiag  1:
 RMSU=  5.29D-07    CP:  1.01D+00  1.57D+00  7.23D-01  8.01D-01  5.58D-01
                    CP:  7.58D-01  7.85D-01  8.29D-01
 E= -1030.41342343649     Delta-E=       -0.000000089057 Rises=F Damp=F
 DIIS: error= 4.68D-06 at cycle   9 NSaved=   9.
 NSaved= 9 IEnMin= 9 EnMin= -1030.41342343649     IErMin= 9 ErrMin= 4.68D-06
 ErrMax= 4.68D-06  0.00D+00 EMaxC= 1.00D-01 BMatC= 1.66D-08 BMatP= 1.27D-07
 IDIUse=1 WtCom= 1.00D+00 WtEn= 0.00D+00
 Coeff-Com:  0.110D-03-0.174D-03-0.727D-03-0.224D-02-0.226D-02-0.148D-02
 Coeff-Com:  0.322D-01 0.290D+00 0.684D+00
 Coeff:      0.110D-03-0.174D-03-0.727D-03-0.224D-02-0.226D-02-0.148D-02
 Coeff:      0.322D-01 0.290D+00 0.684D+00
 Gap=     0.152 Goal=   None    Shift=    0.000
 RMSDP=2.61D-07 MaxDP=1.73D-05 DE=-8.91D-08 OVMax= 4.20D-05

 Cycle  10  Pass 1  IDiag  1:
 RMSU=  1.22D-07    CP:  1.01D+00  1.57D+00  7.23D-01  8.01D-01  5.58D-01
                    CP:  7.65D-01  7.89D-01  9.38D-01  8.41D-01
 E= -1030.41342345028     Delta-E=       -0.000000013793 Rises=F Damp=F
 DIIS: error= 5.66D-07 at cycle  10 NSaved=  10.
 NSaved=10 IEnMin=10 EnMin= -1030.41342345028     IErMin=10 ErrMin= 5.66D-07
 ErrMax= 5.66D-07  0.00D+00 EMaxC= 1.00D-01 BMatC= 3.21D-10 BMatP= 1.66D-08
 IDIUse=1 WtCom= 1.00D+00 WtEn= 0.00D+00
 Coeff-Com:  0.227D-04-0.286D-04-0.191D-03-0.670D-03-0.864D-03-0.363D-02
 Coeff-Com: -0.215D-02 0.517D-01 0.181D+00 0.775D+00
 Coeff:      0.227D-04-0.286D-04-0.191D-03-0.670D-03-0.864D-03-0.363D-02
 Coeff:     -0.215D-02 0.517D-01 0.181D+00 0.775D+00
 Gap=     0.152 Goal=   None    Shift=    0.000
 RMSDP=5.41D-08 MaxDP=1.71D-06 DE=-1.38D-08 OVMax= 9.26D-06

 Cycle  11  Pass 1  IDiag  1:
 RMSU=  3.71D-08    CP:  1.01D+00  1.57D+00  7.23D-01  8.01D-01  5.58D-01
                    CP:  7.65D-01  7.92D-01  9.44D-01  8.81D-01  1.01D+00
 E= -1030.41342345057     Delta-E=       -0.000000000293 Rises=F Damp=F
 DIIS: error= 3.68D-07 at cycle  11 NSaved=  11.
 NSaved=11 IEnMin=11 EnMin= -1030.41342345057     IErMin=11 ErrMin= 3.68D-07
 ErrMax= 3.68D-07  0.00D+00 EMaxC= 1.00D-01 BMatC= 7.88D-11 BMatP= 3.21D-10
 IDIUse=1 WtCom= 1.00D+00 WtEn= 0.00D+00
 Coeff-Com:  0.402D-06 0.210D-05-0.276D-04-0.141D-03-0.261D-03-0.183D-02
 Coeff-Com: -0.482D-02-0.557D-02 0.174D-01 0.368D+00 0.627D+00
 Coeff:      0.402D-06 0.210D-05-0.276D-04-0.141D-03-0.261D-03-0.183D-02
 Coeff:     -0.482D-02-0.557D-02 0.174D-01 0.368D+00 0.627D+00
 Gap=     0.152 Goal=   None    Shift=    0.000
 RMSDP=2.53D-08 MaxDP=1.59D-06 DE=-2.93D-10 OVMax= 4.10D-06

 Cycle  12  Pass 1  IDiag  1:
 RMSU=  1.24D-08    CP:  1.01D+00  1.57D+00  7.23D-01  8.01D-01  5.58D-01
                    CP:  7.66D-01  7.92D-01  9.52D-01  8.90D-01  1.09D+00
                    CP:  8.82D-01
 E= -1030.41342345062     Delta-E=       -0.000000000044 Rises=F Damp=F
 DIIS: error= 1.04D-07 at cycle  12 NSaved=  12.
 NSaved=12 IEnMin=12 EnMin= -1030.41342345062     IErMin=12 ErrMin= 1.04D-07
 ErrMax= 1.04D-07  0.00D+00 EMaxC= 1.00D-01 BMatC= 5.81D-12 BMatP= 7.88D-11
 IDIUse=1 WtCom= 1.00D+00 WtEn= 0.00D+00
 Coeff-Com: -0.323D-05 0.514D-05 0.178D-04 0.411D-04 0.373D-04-0.124D-03
 Coeff-Com: -0.142D-02-0.819D-02-0.159D-01 0.209D-01 0.236D+00 0.768D+00
 Coeff:     -0.323D-05 0.514D-05 0.178D-04 0.411D-04 0.373D-04-0.124D-03
 Coeff:     -0.142D-02-0.819D-02-0.159D-01 0.209D-01 0.236D+00 0.768D+00
 Gap=     0.152 Goal=   None    Shift=    0.000
 RMSDP=7.19D-09 MaxDP=3.49D-07 DE=-4.41D-11 OVMax= 1.70D-06

 Error on total polarization charges =  0.00844
 SCF Done:  E(RPBE1PBE) =  -1030.41342345     A.U. after   12 cycles
            NFock= 12  Conv=0.72D-08     -V/T= 1.9987
 KE= 1.031710523649D+03 PE=-4.847021032178D+03 EE= 1.580345735783D+03
 Leave Link  502 at Mon Aug 19 14:15:13 2024, MaxMem=  8589934592 cpu:            1315.3 elap:              55.2
 (Enter /share/apps/g16.b01_avx2/g16/l601.exe)
 Copying SCF densities to generalized density rwf, IOpCl= 0 IROHF=0.

 **********************************************************************

            Population analysis using the SCF Density.

 **********************************************************************

 Orbital symmetries:
       Occupied  (A) (A) (A) (A) (A) (A) (A) (A) (A) (A) (A) (A)
                 (A) (A) (A) (A) (A) (A) (A) (A) (A) (A) (A) (A)
                 (A) (A) (A) (A) (A) (A) (A) (A) (A) (A) (A) (A)
                 (A) (A) (A) (A) (A) (A) (A) (A) (A) (A) (A) (A)
                 (A) (A) (A) (A) (A) (A) (A) (A) (A) (A) (A) (A)
       Virtual   (A) (A) (A) (A) (A) (A) (A) (A) (A) (A) (A) (A)
                 (A) (A) (A) (A) (A) (A) (A) (A) (A) (A) (A) (A)
                 (A) (A) (A) (A) (A) (A) (A) (A) (A) (A) (A) (A)
                 (A) (A) (A) (A) (A) (A) (A) (A) (A) (A) (A) (A)
                 (A) (A) (A) (A) (A) (A) (A) (A) (A) (A) (A) (A)
                 (A) (A) (A) (A) (A) (A) (A) (A) (A) (A) (A) (A)
                 (A) (A) (A) (A) (A) (A) (A) (A) (A) (A) (A) (A)
                 (A) (A) (A) (A) (A) (A) (A) (A) (A) (A) (A) (A)
                 (A) (A) (A) (A) (A) (A) (A) (A) (A) (A) (A) (A)
                 (A) (A) (A) (A) (A) (A) (A) (A) (A) (A) (A) (A)
                 (A) (A) (A) (A) (A) (A) (A) (A) (A) (A) (A) (A)
                 (A) (A) (A) (A) (A) (A) (A) (A) (A) (A) (A) (A)
                 (A) (A) (A) (A) (A) (A) (A) (A) (A) (A) (A) (A)
                 (A) (A) (A) (A) (A) (A) (A) (A) (A) (A) (A) (A)
                 (A) (A) (A) (A) (A) (A) (A) (A) (A) (A) (A) (A)
                 (A) (A) (A) (A) (A) (A) (A) (A) (A) (A) (A) (A)
                 (A) (A) (A) (A) (A) (A) (A) (A) (A) (A) (A) (A)
                 (A) (A) (A) (A) (A) (A) (A) (A) (A) (A) (A) (A)
                 (A) (A) (A) (A) (A) (A) (A) (A) (A) (A) (A) (A)
                 (A) (A) (A) (A) (A) (A) (A) (A) (A) (A) (A) (A)
                 (A) (A) (A) (A) (A) (A) (A) (A) (A) (A) (A) (A)
                 (A) (A) (A) (A) (A) (A) (A) (A) (A) (A) (A) (A)
                 (A) (A) (A) (A) (A) (A) (A) (A) (A) (A) (A) (A)
                 (A) (A) (A) (A) (A) (A) (A) (A) (A) (A) (A) (A)
                 (A) (A) (A) (A) (A) (A) (A) (A) (A) (A) (A) (A)
                 (A) (A) (A) (A) (A) (A) (A) (A) (A) (A) (A) (A)
                 (A) (A) (A) (A) (A) (A) (A) (A) (A) (A) (A) (A)
                 (A) (A) (A) (A) (A) (A) (A) (A) (A) (A) (A) (A)
                 (A) (A) (A) (A) (A) (A) (A) (A) (A) (A) (A) (A)
                 (A) (A) (A) (A) (A) (A) (A) (A) (A) (A) (A) (A)
                 (A) (A) (A) (A) (A) (A) (A) (A) (A) (A) (A) (A)
                 (A) (A) (A) (A) (A) (A) (A) (A) (A) (A) (A) (A)
                 (A) (A) (A) (A) (A) (A) (A) (A) (A) (A) (A) (A)
                 (A) (A) (A) (A) (A) (A) (A) (A) (A) (A) (A) (A)
                 (A) (A) (A) (A) (A) (A) (A) (A) (A) (A) (A) (A)
                 (A) (A) (A) (A) (A) (A) (A) (A) (A) (A) (A) (A)
                 (A) (A) (A) (A) (A) (A) (A) (A) (A) (A) (A) (A)
                 (A) (A) (A) (A) (A) (A) (A) (A) (A) (A)
 The electronic state is 1-A.
 Alpha  occ. eigenvalues --  -24.83230 -24.82741 -24.82492 -24.82385 -24.82336
 Alpha  occ. eigenvalues --  -19.25180 -19.22961 -19.22297 -10.39056 -10.30399
 Alpha  occ. eigenvalues --  -10.28681 -10.28590 -10.28417 -10.27671 -10.27648
 Alpha  occ. eigenvalues --  -10.26078  -1.45155  -1.44179  -1.43498  -1.42248
 Alpha  occ. eigenvalues --   -1.41654  -1.13683  -1.07751  -1.06242  -0.87290
 Alpha  occ. eigenvalues --   -0.79755  -0.77701  -0.75914  -0.73098  -0.72899
 Alpha  occ. eigenvalues --   -0.69921  -0.68457  -0.67746  -0.64876  -0.63693
 Alpha  occ. eigenvalues --   -0.63435  -0.62128  -0.61208  -0.61052  -0.60056
 Alpha  occ. eigenvalues --   -0.57781  -0.57022  -0.55297  -0.53464  -0.52166
 Alpha  occ. eigenvalues --   -0.51688  -0.50398  -0.49005  -0.45900  -0.42319
 Alpha  occ. eigenvalues --   -0.39895  -0.38925  -0.37896  -0.35427  -0.33063
 Alpha  occ. eigenvalues --   -0.31754  -0.30778  -0.30120  -0.20553  -0.19183
 Alpha virt. eigenvalues --   -0.03960   0.03676   0.04507   0.05081   0.06533
 Alpha virt. eigenvalues --    0.08575   0.10679   0.11737   0.13043   0.14339
 Alpha virt. eigenvalues --    0.15222   0.17260   0.18285   0.18980   0.19633
 Alpha virt. eigenvalues --    0.20570   0.21894   0.22616   0.23765   0.24613
 Alpha virt. eigenvalues --    0.25923   0.26927   0.28135   0.28903   0.29155
 Alpha virt. eigenvalues --    0.30550   0.31296   0.31558   0.32934   0.33370
 Alpha virt. eigenvalues --    0.34563   0.34618   0.34846   0.36546   0.37244
 Alpha virt. eigenvalues --    0.37704   0.37986   0.39499   0.39801   0.40928
 Alpha virt. eigenvalues --    0.40943   0.41661   0.42090   0.43489   0.44140
 Alpha virt. eigenvalues --    0.44964   0.46279   0.46908   0.49289   0.50944
 Alpha virt. eigenvalues --    0.51598   0.52759   0.53591   0.54012   0.54833
 Alpha virt. eigenvalues --    0.55568   0.56810   0.57583   0.59464   0.60522
 Alpha virt. eigenvalues --    0.62203   0.62873   0.63396   0.64994   0.66303
 Alpha virt. eigenvalues --    0.67613   0.68531   0.69445   0.69968   0.70342
 Alpha virt. eigenvalues --    0.72290   0.73040   0.74717   0.75552   0.77182
 Alpha virt. eigenvalues --    0.77868   0.78207   0.80005   0.81355   0.83566
 Alpha virt. eigenvalues --    0.85018   0.85333   0.86303   0.86498   0.87606
 Alpha virt. eigenvalues --    0.88765   0.88796   0.90475   0.90703   0.91716
 Alpha virt. eigenvalues --    0.92371   0.93032   0.93875   0.94698   0.95571
 Alpha virt. eigenvalues --    0.96397   0.97616   0.98335   0.99637   1.02442
 Alpha virt. eigenvalues --    1.03761   1.04710   1.06966   1.07504   1.08654
 Alpha virt. eigenvalues --    1.10403   1.11391   1.12119   1.14081   1.15725
 Alpha virt. eigenvalues --    1.17057   1.18484   1.18833   1.21740   1.24108
 Alpha virt. eigenvalues --    1.25024   1.28925   1.29080   1.29783   1.32533
 Alpha virt. eigenvalues --    1.34549   1.35888   1.37931   1.38760   1.40402
 Alpha virt. eigenvalues --    1.42437   1.44575   1.46155   1.47029   1.48473
 Alpha virt. eigenvalues --    1.49060   1.51491   1.54266   1.54750   1.56863
 Alpha virt. eigenvalues --    1.57278   1.58886   1.59184   1.61156   1.62587
 Alpha virt. eigenvalues --    1.64767   1.68259   1.69079   1.70395   1.73364
 Alpha virt. eigenvalues --    1.74871   1.75032   1.75778   1.77446   1.78968
 Alpha virt. eigenvalues --    1.79731   1.82988   1.86519   1.86773   1.88768
 Alpha virt. eigenvalues --    1.91392   1.92089   1.92894   1.93601   1.96023
 Alpha virt. eigenvalues --    1.98783   2.01069   2.01566   2.03667   2.05087
 Alpha virt. eigenvalues --    2.06194   2.11472   2.12998   2.13572   2.14665
 Alpha virt. eigenvalues --    2.14775   2.16253   2.17447   2.21848   2.23876
 Alpha virt. eigenvalues --    2.24400   2.25191   2.27665   2.29701   2.31561
 Alpha virt. eigenvalues --    2.33272   2.34585   2.35555   2.36110   2.36878
 Alpha virt. eigenvalues --    2.39756   2.41391   2.43959   2.45911   2.48471
 Alpha virt. eigenvalues --    2.51339   2.51700   2.53198   2.54211   2.57778
 Alpha virt. eigenvalues --    2.58660   2.60371   2.61180   2.62423   2.65391
 Alpha virt. eigenvalues --    2.66729   2.67453   2.67993   2.70142   2.71267
 Alpha virt. eigenvalues --    2.73734   2.74464   2.75414   2.76490   2.76731
 Alpha virt. eigenvalues --    2.77230   2.77850   2.78661   2.80018   2.81509
 Alpha virt. eigenvalues --    2.82007   2.82610   2.84426   2.85581   2.86568
 Alpha virt. eigenvalues --    2.88651   2.91085   2.93020   2.94385   2.94562
 Alpha virt. eigenvalues --    2.96033   2.96518   2.98414   3.00226   3.01586
 Alpha virt. eigenvalues --    3.02970   3.03341   3.03969   3.04556   3.06968
 Alpha virt. eigenvalues --    3.07809   3.08891   3.09444   3.12731   3.13341
 Alpha virt. eigenvalues --    3.14627   3.16292   3.17536   3.19126   3.19962
 Alpha virt. eigenvalues --    3.21262   3.22020   3.22355   3.25907   3.26161
 Alpha virt. eigenvalues --    3.26508   3.27140   3.28317   3.30251   3.31508
 Alpha virt. eigenvalues --    3.32914   3.33525   3.36213   3.36843   3.37539
 Alpha virt. eigenvalues --    3.37942   3.39251   3.40330   3.44507   3.45229
 Alpha virt. eigenvalues --    3.45774   3.48811   3.49111   3.50129   3.50888
 Alpha virt. eigenvalues --    3.56434   3.58933   3.59949   3.61922   3.63903
 Alpha virt. eigenvalues --    3.66161   3.69807   3.73174   3.73573   3.77049
 Alpha virt. eigenvalues --    3.77716   3.80123   3.80942   3.81934   3.83404
 Alpha virt. eigenvalues --    3.84844   3.87106   3.88596   3.88760   3.90003
 Alpha virt. eigenvalues --    3.92061   3.92567   3.93654   3.98069   4.05104
 Alpha virt. eigenvalues --    4.05934   4.07669   4.09513   4.12616   4.15114
 Alpha virt. eigenvalues --    4.16618   4.17124   4.19303   4.19729   4.21390
 Alpha virt. eigenvalues --    4.22752   4.26118   4.26173   4.26818   4.29468
 Alpha virt. eigenvalues --    4.33836   4.35264   4.35793   4.37560   4.40280
 Alpha virt. eigenvalues --    4.41636   4.42923   4.47964   4.57124   4.58259
 Alpha virt. eigenvalues --    4.61258   4.61918   4.62020   4.65097   4.69227
 Alpha virt. eigenvalues --    4.70341   4.77708   4.83124   4.84490   4.97770
 Alpha virt. eigenvalues --    5.01458   5.09837   5.15157   5.15559   5.17077
 Alpha virt. eigenvalues --    5.21678   5.23463   5.24390   5.25404   5.32065
 Alpha virt. eigenvalues --    5.33790   5.37512   5.40044   5.45715   5.48857
 Alpha virt. eigenvalues --    5.51367   5.54444   5.56039   5.60445   5.69539
 Alpha virt. eigenvalues --    5.73553   5.74127   5.75489   5.85674   5.90099
 Alpha virt. eigenvalues --    6.00583   6.14334   6.24782   6.31507   6.34964
 Alpha virt. eigenvalues --    6.38418   6.44319   6.44950   6.48231   6.57789
 Alpha virt. eigenvalues --    6.59506   6.67823   6.72361   6.73607   6.80070
 Alpha virt. eigenvalues --    6.81667   6.82636   6.83145   6.84402   6.84825
 Alpha virt. eigenvalues --    6.86731   6.87694   6.88426   6.91293   6.93338
 Alpha virt. eigenvalues --    6.95659   6.96683   7.03089   7.04252   7.08812
 Alpha virt. eigenvalues --    7.09312   7.17093   7.17692   7.20561   7.24335
 Alpha virt. eigenvalues --    7.32520   7.33143   7.35561   7.36071   7.40591
 Alpha virt. eigenvalues --    7.50181   7.51520   7.53692   7.59883   7.69461
 Alpha virt. eigenvalues --    7.73863   7.79317   7.86718   7.90939   7.98812
 Alpha virt. eigenvalues --    8.03148   8.03549   8.12699   8.18592   8.22646
 Alpha virt. eigenvalues --    8.36324   8.38742   8.40548   8.43292   8.47552
 Alpha virt. eigenvalues --    8.51291   8.55845   8.56782   8.71517   8.73789
 Alpha virt. eigenvalues --    8.78900   8.84649   8.89098   8.92730   8.92877
 Alpha virt. eigenvalues --    8.97169   9.03038   9.03627   9.06843   9.14297
 Alpha virt. eigenvalues --    9.16879   9.20567   9.22955   9.28821   9.33167
 Alpha virt. eigenvalues --    9.34763   9.46341   9.69115  22.38819  22.91132
 Alpha virt. eigenvalues --   23.11084  23.44259  23.71301  23.80295  23.92381
 Alpha virt. eigenvalues --   25.03087  43.81849  43.88590  44.53108  57.37790
 Alpha virt. eigenvalues --   57.50693  57.60035  57.70459  57.82356
          Condensed to atoms (all electrons):
               1          2          3          4          5          6
     1  O    7.809857   0.659209  -0.087911   0.000310   0.001139   0.005642
     2  C    0.659209   4.625492   0.315739  -0.092781  -0.009873   0.004059
     3  O   -0.087911   0.315739   7.951277   0.156859  -0.002346  -0.014298
     4  C    0.000310  -0.092781   0.156859   5.982017   0.166005   0.164489
     5  C    0.001139  -0.009873  -0.002346   0.166005   5.392140  -0.089853
     6  C    0.005642   0.004059  -0.014298   0.164489  -0.089853   5.270542
     7  C    0.000099   0.001337   0.008597  -0.132335   0.391798   0.092198
     8  C    0.000604   0.002599   0.012151  -0.194644   0.082649   0.434808
     9  C   -0.000046   0.000399   0.000354   0.099913  -0.206385  -0.182382
    10  F    0.000008  -0.001792   0.007163  -0.097818   0.274573   0.000339
    11  F   -0.001256   0.004367   0.004282  -0.106411  -0.001089   0.315455
    12  F   -0.000000   0.000020  -0.000095   0.018560  -0.075930  -0.000560
    13  F    0.000000  -0.000002  -0.000108   0.019751  -0.000657  -0.066736
    14  F    0.000000  -0.000000  -0.000002  -0.002211   0.014479   0.011410
    15  C   -0.072197   0.288136  -0.085904   0.020557  -0.017455   0.004401
    16  H    0.004000  -0.056269   0.011863  -0.000926   0.003496  -0.001103
    17  H   -0.002249  -0.012166   0.000681   0.003493   0.000831   0.000017
    18  O   -0.000075  -0.040012   0.002146  -0.000856   0.000248  -0.000039
    19  H   -0.000513   0.008192  -0.000405   0.000004  -0.000060   0.000013
               7          8          9         10         11         12
     1  O    0.000099   0.000604  -0.000046   0.000008  -0.001256  -0.000000
     2  C    0.001337   0.002599   0.000399  -0.001792   0.004367   0.000020
     3  O    0.008597   0.012151   0.000354   0.007163   0.004282  -0.000095
     4  C   -0.132335  -0.194644   0.099913  -0.097818  -0.106411   0.018560
     5  C    0.391798   0.082649  -0.206385   0.274573  -0.001089  -0.075930
     6  C    0.092198   0.434808  -0.182382   0.000339   0.315455  -0.000560
     7  C    5.181829  -0.205016   0.497709  -0.047194  -0.001888   0.236310
     8  C   -0.205016   5.250646   0.495707  -0.001346  -0.060584   0.013431
     9  C    0.497709   0.495707   5.111612   0.008060   0.007815  -0.055056
    10  F   -0.047194  -0.001346   0.008060   8.839653  -0.000145   0.008871
    11  F   -0.001888  -0.060584   0.007815  -0.000145   8.818366  -0.000001
    12  F    0.236310   0.013431  -0.055056   0.008871  -0.000001   8.842290
    13  F    0.014486   0.220113  -0.055007  -0.000001   0.009686  -0.000122
    14  F   -0.063233  -0.063604   0.258187  -0.000081  -0.000089   0.010336
    15  C   -0.001396   0.001012  -0.000413   0.004122   0.000448  -0.000008
    16  H    0.000703  -0.000044  -0.000005   0.003432  -0.000023  -0.000020
    17  H   -0.000271  -0.000116   0.000017  -0.000441  -0.000009   0.000007
    18  O    0.000003  -0.000001   0.000000   0.000051  -0.000000  -0.000000
    19  H   -0.000005   0.000001  -0.000000   0.000014  -0.000000  -0.000000
              13         14         15         16         17         18
     1  O    0.000000   0.000000  -0.072197   0.004000  -0.002249  -0.000075
     2  C   -0.000002  -0.000000   0.288136  -0.056269  -0.012166  -0.040012
     3  O   -0.000108  -0.000002  -0.085904   0.011863   0.000681   0.002146
     4  C    0.019751  -0.002211   0.020557  -0.000926   0.003493  -0.000856
     5  C   -0.000657   0.014479  -0.017455   0.003496   0.000831   0.000248
     6  C   -0.066736   0.011410   0.004401  -0.001103   0.000017  -0.000039
     7  C    0.014486  -0.063233  -0.001396   0.000703  -0.000271   0.000003
     8  C    0.220113  -0.063604   0.001012  -0.000044  -0.000116  -0.000001
     9  C   -0.055007   0.258187  -0.000413  -0.000005   0.000017   0.000000
    10  F   -0.000001  -0.000081   0.004122   0.003432  -0.000441   0.000051
    11  F    0.009686  -0.000089   0.000448  -0.000023  -0.000009  -0.000000
    12  F   -0.000122   0.010336  -0.000008  -0.000020   0.000007  -0.000000
    13  F    8.845730   0.010658  -0.000002   0.000000   0.000000   0.000000
    14  F    0.010658   8.811185   0.000000   0.000000   0.000000   0.000000
    15  C   -0.000002   0.000000   4.870275   0.416032   0.387932   0.297042
    16  H    0.000000   0.000000   0.416032   0.564603  -0.038508  -0.044426
    17  H    0.000000   0.000000   0.387932  -0.038508   0.549909  -0.039639
    18  O    0.000000   0.000000   0.297042  -0.044426  -0.039639   8.001639
    19  H   -0.000000   0.000000  -0.026074  -0.003531  -0.004624   0.299409
              19
     1  O   -0.000513
     2  C    0.008192
     3  O   -0.000405
     4  C    0.000004
     5  C   -0.000060
     6  C    0.000013
     7  C   -0.000005
     8  C    0.000001
     9  C   -0.000000
    10  F    0.000014
    11  F   -0.000000
    12  F   -0.000000
    13  F   -0.000000
    14  F    0.000000
    15  C   -0.026074
    16  H   -0.003531
    17  H   -0.004624
    18  O    0.299409
    19  H    0.380208
 Mulliken charges:
               1
     1  O   -0.316621
     2  C    0.303347
     3  O   -0.280042
     4  C   -0.003978
     5  C    0.076292
     6  C    0.051596
     7  C    0.026270
     8  C    0.011632
     9  C    0.019520
    10  F    0.002531
    11  F    0.011075
    12  F    0.001968
    13  F    0.002211
    14  F    0.012964
    15  C   -0.086508
    16  H    0.140726
    17  H    0.155136
    18  O   -0.475492
    19  H    0.347371
 Sum of Mulliken charges =  -0.00000
 Mulliken charges with hydrogens summed into heavy atoms:
               1
     1  O   -0.316621
     2  C    0.303347
     3  O   -0.280042
     4  C   -0.003978
     5  C    0.076292
     6  C    0.051596
     7  C    0.026270
     8  C    0.011632
     9  C    0.019520
    10  F    0.002531
    11  F    0.011075
    12  F    0.001968
    13  F    0.002211
    14  F    0.012964
    15  C    0.209354
    18  O   -0.128121
 Electronic spatial extent (au):  <R**2>=           3731.8945
 Charge=             -0.0000 electrons
 Dipole moment (field-independent basis, Debye):
    X=             -2.7816    Y=             -5.3205    Z=              0.4819  Tot=              6.0231
 Quadrupole moment (field-independent basis, Debye-Ang):
   XX=            -85.5387   YY=            -81.7996   ZZ=            -82.7371
   XY=            -19.1018   XZ=              0.2671   YZ=             -2.6138
 Traceless Quadrupole moment (field-independent basis, Debye-Ang):
   XX=             -2.1803   YY=              1.5589   ZZ=              0.6213
   XY=            -19.1018   XZ=              0.2671   YZ=             -2.6138
 Octapole moment (field-independent basis, Debye-Ang**2):
  XXX=            -64.1290  YYY=            -20.5776  ZZZ=              2.6482  XYY=             -5.1512
  XXY=            -79.8757  XXZ=              2.3816  XZZ=            -11.1103  YZZ=             -3.6151
  YYZ=             -0.2951  XYZ=            -11.0068
 Hexadecapole moment (field-independent basis, Debye-Ang**3):
 XXXX=          -3107.4605 YYYY=           -919.5306 ZZZZ=           -127.4550 XXXY=           -350.4781
 XXXZ=             10.4118 YYYX=            -71.7838 YYYZ=             -7.0654 ZZZX=            -11.2292
 ZZZY=             -1.5560 XXYY=           -600.1832 XXZZ=           -527.3852 YYZZ=           -166.2155
 XXYZ=            -47.7925 YYXZ=             -0.1338 ZZXY=             -9.4507
 N-N= 1.204551349295D+03 E-N=-4.847021031092D+03  KE= 1.031710523649D+03
 No NMR shielding tensors so no spin-rotation constants.
 Leave Link  601 at Mon Aug 19 14:15:13 2024, MaxMem=  8589934592 cpu:               4.6 elap:               0.2
 (Enter /share/apps/g16.b01_avx2/g16/l701.exe)
 ... and contract with generalized density number  0.
 Compute integral first derivatives.
 R6Disp: Adding Grimme-D3 dispersion energy 1st derivatives to the gradient.
   1 Symmetry operations used in ECPInt.
 ECPInt:  NShTT=   17766 NPrTT=   57652 LenC2=   15667 LenP2D=   36643.
 LDataN:  DoStor=T MaxTD1= 7 Len=  274
 D1PCM: PCM CHGder 1st derivatives, ID1Alg=3 FixD1E=F DoIter=F DoCFld=F I1PDM=0.
 GePol: Maximum number of non-zero 1st derivatives   =     230
 Leave Link  701 at Mon Aug 19 14:15:14 2024, MaxMem=  8589934592 cpu:              24.5 elap:               1.1
 (Enter /share/apps/g16.b01_avx2/g16/l702.exe)
 L702 exits ... SP integral derivatives will be done elsewhere.
 Leave Link  702 at Mon Aug 19 14:15:15 2024, MaxMem=  8589934592 cpu:               0.5 elap:               0.0
 (Enter /share/apps/g16.b01_avx2/g16/l703.exe)
 Integral derivatives from FoFJK, PRISM(SPDF).
 Compute integral first derivatives, UseDBF=F ICtDFT=           0.
 Calling FoFJK, ICntrl=      2127 FMM=F ISym2X=0 I1Cent= 0 IOpClX= 0 NMat=1 NMatS=1 NMatT=0.
 FoFJK:  IHMeth= 1 ICntrl=    2127 DoSepK=F KAlg= 0 I1Cent=           0 FoldK=F
 IRaf=         0 NMat=       1 IRICut=       1 DoRegI=T DoRafI=F ISym2E= 0 IDoP0=0 IntGTp=1.
 FoFCou: FMM=F IPFlag=           0 FMFlag=      100000 FMFlg1=         800
         NFxFlg=           0 DoJE=F BraDBF=F KetDBF=F FulRan=T
         wScrn=  0.000000 ICntrl=      2127 IOpCl=  0 I1Cent=           0 NGrid=           0
         NMat0=    1 NMatS0=      1 NMatT0=    0 NMatD0=    1 NMtDS0=    0 NMtDT0=    0
 Symmetry not used in FoFCou.
 Leave Link  703 at Mon Aug 19 14:15:44 2024, MaxMem=  8589934592 cpu:             710.7 elap:              29.7
 (Enter /share/apps/g16.b01_avx2/g16/l716.exe)
 Dipole        =-1.09435841D+00-2.09325921D+00 1.89601906D-01
 ***** Axes restored to original set *****
 -------------------------------------------------------------------
 Center     Atomic                   Forces (Hartrees/Bohr)
 Number     Number              X              Y              Z
 -------------------------------------------------------------------
      1        8          -0.019976057   -0.035967595   -0.004082344
      2        6          -0.017773840    0.029134831    0.035665907
      3        8           0.058558812   -0.014967337   -0.027297543
      4        6          -0.029098420    0.015879906    0.028660710
      5        6          -0.195546971    0.383472993   -0.119108787
      6        6          -0.155603573   -0.294978009    0.292193133
      7        6           0.189760453    0.293870839   -0.290506958
      8        6           0.229404465   -0.375938172    0.110856618
      9        6           0.413846791   -0.087044263   -0.183571224
     10        9           0.230691604   -0.408267224    0.114446710
     11        9           0.186862934    0.306138361   -0.316789813
     12        9          -0.201847106   -0.321350239    0.314225699
     13        9          -0.244536496    0.410281081   -0.124973014
     14        9          -0.434838379    0.091059989    0.193398354
     15        6           0.004649110   -0.016333068   -0.013488966
     16        1           0.006383770    0.012462460    0.003922320
     17        1          -0.002607503    0.001832818   -0.013365223
     18        8          -0.014796066    0.011526415   -0.002709236
     19        1          -0.003533529   -0.000813785    0.002523657
 -------------------------------------------------------------------
 Cartesian Forces:  Max     0.434838379 RMS     0.197200157
 Leave Link  716 at Mon Aug 19 14:15:45 2024, MaxMem=  8589934592 cpu:               0.5 elap:               0.0
 (Enter /share/apps/g16.b01_avx2/g16/l103.exe)

 GradGradGradGradGradGradGradGradGradGradGradGradGradGradGradGradGradGrad
 Berny optimization.
 FormGI is forming the generalized inverse of G from B-inverse, IUseBI=4.
 GSVD:  received Info=                   1 from GESDD.
 Internal  Forces:  Max     0.493707581 RMS     0.118601099
 Search for a local minimum.
 Step number   1 out of a maximum of   95
 All quantities printed in internal units (Hartrees-Bohrs-Radians)
 RMS Force = .11860D+00 SwitMx=.10000D-02 MixMth= 1
 Mixed Optimization -- RFO/linear search
 Second derivative matrix not updated -- first step.
 ITU=  0
     Eigenvalues ---    0.00237   0.00628   0.01295   0.01445   0.02138
     Eigenvalues ---    0.02181   0.02190   0.02204   0.02220   0.02244
     Eigenvalues ---    0.02245   0.02247   0.02250   0.02473   0.06066
     Eigenvalues ---    0.07380   0.11364   0.13974   0.16000   0.22094
     Eigenvalues ---    0.24760   0.24994   0.24996   0.24996   0.24998
     Eigenvalues ---    0.24999   0.24999   0.24999   0.25000   0.25000
     Eigenvalues ---    0.25000   0.25000   0.28519   0.31855   0.31856
     Eigenvalues ---    0.40989   0.42668   0.42875   0.43253   0.46430
     Eigenvalues ---    0.47010   0.47583   0.47687   0.55473   0.56991
     Eigenvalues ---    0.99592   1.92980   1.93307   1.93482   1.93667
     Eigenvalues ---    1.94694
 RFO step:  Lambda=-4.99699382D-01 EMin= 2.36824250D-03
 Linear search not attempted -- first point.
 Maximum step size (   0.300) exceeded in Quadratic search.
    -- Step size scaled by   0.648
 Iteration  1 RMS(Cart)=  0.04024461 RMS(Int)=  0.00018145
 Iteration  2 RMS(Cart)=  0.00022187 RMS(Int)=  0.00001151
 Iteration  3 RMS(Cart)=  0.00000005 RMS(Int)=  0.00001151
 ITry= 1 IFail=0 DXMaxC= 1.45D-01 DCOld= 1.00D+10 DXMaxT= 3.00D-01 DXLimC= 3.00D+00 Rises=F
 Variable       Old X    -DE/DX   Delta X   Delta X   Delta X     New X
                                 (Linear)    (Quad)   (Total)
    R1        2.28802  -0.03909   0.00000  -0.01693  -0.01693   2.27110
    R2        2.68081  -0.04492   0.00000  -0.03141  -0.03141   2.64941
    R3        2.91018  -0.02292   0.00000  -0.01892  -0.01892   2.89126
    R4        2.53405   0.01972   0.00000   0.01194   0.01194   2.54598
    R5        2.64182   0.01491   0.00000   0.00979   0.00980   2.65162
    R6        2.63875   0.01732   0.00000   0.01139   0.01140   2.65015
    R7        2.62274   0.02684   0.00000   0.01779   0.01779   2.64053
    R8        2.04882   0.48252   0.00000   0.12827   0.12827   2.17709
    R9        2.62468   0.02617   0.00000   0.01740   0.01740   2.64208
   R10        2.04997   0.47829   0.00000   0.12750   0.12750   2.17747
   R11        2.62393   0.03341   0.00000   0.02245   0.02244   2.64637
   R12        2.04942   0.49269   0.00000   0.13116   0.13116   2.18058
   R13        2.62176   0.03396   0.00000   0.02277   0.02276   2.64453
   R14        2.04913   0.49371   0.00000   0.13134   0.13134   2.18047
   R15        2.04713   0.48454   0.00000   0.12826   0.12826   2.17539
   R16        2.11110  -0.01446   0.00000  -0.01145  -0.01145   2.09965
   R17        2.11109  -0.01203   0.00000  -0.00952  -0.00952   2.10157
   R18        2.70231  -0.01933   0.00000  -0.01376  -0.01376   2.68855
   R19        1.81414   0.00087   0.00000   0.00053   0.00053   1.81467
    A1        2.13954  -0.00683   0.00000  -0.00567  -0.00571   2.13383
    A2        2.18934   0.00683   0.00000   0.00614   0.00611   2.19545
    A3        1.94045   0.00174   0.00000   0.00173   0.00170   1.94215
    A4        2.47625  -0.03147   0.00000  -0.02718  -0.02718   2.44906
    A5        2.11184  -0.01175   0.00000  -0.00980  -0.00980   2.10204
    A6        2.08871  -0.00858   0.00000  -0.00706  -0.00707   2.08164
    A7        2.08253   0.02031   0.00000   0.01685   0.01685   2.09938
    A8        2.09593  -0.00814   0.00000  -0.00739  -0.00739   2.08855
    A9        2.06956   0.01721   0.00000   0.01505   0.01504   2.08461
   A10        2.11764  -0.00907   0.00000  -0.00765  -0.00765   2.10999
   A11        2.09489  -0.00778   0.00000  -0.00705  -0.00705   2.08785
   A12        2.06324   0.01942   0.00000   0.01694   0.01694   2.08018
   A13        2.12493  -0.01163   0.00000  -0.00988  -0.00988   2.11504
   A14        2.10254  -0.00483   0.00000  -0.00384  -0.00384   2.09869
   A15        2.08811   0.00311   0.00000   0.00252   0.00253   2.09064
   A16        2.09250   0.00172   0.00000   0.00132   0.00132   2.09382
   A17        2.10389  -0.00557   0.00000  -0.00445  -0.00445   2.09944
   A18        2.08615   0.00408   0.00000   0.00334   0.00335   2.08950
   A19        2.09311   0.00149   0.00000   0.00110   0.00111   2.09421
   A20        2.08630   0.00602   0.00000   0.00590   0.00589   2.09218
   A21        2.09810  -0.00301   0.00000  -0.00295  -0.00294   2.09516
   A22        2.09865  -0.00299   0.00000  -0.00294  -0.00293   2.09572
   A23        1.88829   0.00331   0.00000   0.00318   0.00319   1.89148
   A24        1.88831  -0.00597   0.00000  -0.00666  -0.00667   1.88164
   A25        1.93230  -0.00758   0.00000  -0.00687  -0.00688   1.92543
   A26        1.88832   0.00011   0.00000   0.00034   0.00033   1.88865
   A27        1.93251   0.00459   0.00000   0.00481   0.00481   1.93732
   A28        1.93257   0.00542   0.00000   0.00507   0.00504   1.93761
   A29        1.91114  -0.00783   0.00000  -0.00769  -0.00769   1.90345
    D1       -1.49977  -0.00432   0.00000  -0.00530  -0.00526  -1.50503
    D2        1.47256   0.00703   0.00000   0.00872   0.00868   1.48124
    D3       -2.76586   0.00491   0.00000   0.00653   0.00654  -2.75931
    D4        1.47537   0.00621   0.00000   0.00800   0.00803   1.48339
    D5       -0.64529   0.00804   0.00000   0.01028   0.01027  -0.63501
    D6        0.55084  -0.00520   0.00000  -0.00657  -0.00659   0.54426
    D7       -1.49112  -0.00391   0.00000  -0.00510  -0.00510  -1.49622
    D8        2.67141  -0.00207   0.00000  -0.00282  -0.00285   2.66856
    D9       -1.49899  -0.00074   0.00000  -0.00094  -0.00093  -1.49991
   D10        1.65863   0.00001   0.00000   0.00004   0.00003   1.65866
   D11        3.13398   0.00140   0.00000   0.00171   0.00170   3.13568
   D12       -0.01806   0.00183   0.00000   0.00229   0.00230  -0.01577
   D13       -0.02358   0.00040   0.00000   0.00051   0.00051  -0.02307
   D14        3.10756   0.00083   0.00000   0.00110   0.00110   3.10867
   D15       -3.13294  -0.00149   0.00000  -0.00182  -0.00182  -3.13476
   D16        0.02518  -0.00194   0.00000  -0.00244  -0.00245   0.02273
   D17        0.02441  -0.00047   0.00000  -0.00061  -0.00061   0.02380
   D18       -3.10066  -0.00091   0.00000  -0.00124  -0.00124  -3.10191
   D19        0.00623  -0.00013   0.00000  -0.00011  -0.00011   0.00612
   D20        3.13817   0.00018   0.00000   0.00025   0.00025   3.13842
   D21       -3.12462  -0.00073   0.00000  -0.00085  -0.00085  -3.12547
   D22        0.00732  -0.00042   0.00000  -0.00049  -0.00049   0.00683
   D23       -0.00792   0.00030   0.00000   0.00033   0.00033  -0.00760
   D24       -3.13971  -0.00005   0.00000  -0.00009  -0.00009  -3.13981
   D25        3.11654   0.00107   0.00000   0.00124   0.00124   3.11778
   D26       -0.01524   0.00071   0.00000   0.00082   0.00081  -0.01443
   D27        0.01043  -0.00041   0.00000  -0.00047  -0.00047   0.00997
   D28        3.13397   0.00030   0.00000   0.00035   0.00035   3.13432
   D29       -3.12148  -0.00072   0.00000  -0.00084  -0.00084  -3.12232
   D30        0.00205  -0.00002   0.00000  -0.00002  -0.00002   0.00204
   D31       -0.00959   0.00033   0.00000   0.00037   0.00037  -0.00922
   D32       -3.13312  -0.00037   0.00000  -0.00045  -0.00045  -3.13358
   D33        3.12216   0.00070   0.00000   0.00081   0.00080   3.12296
   D34       -0.00137   0.00000   0.00000  -0.00002  -0.00002  -0.00139
   D35        3.10875  -0.00395   0.00000  -0.00437  -0.00438   3.10438
   D36       -1.08013  -0.00175   0.00000  -0.00174  -0.00175  -1.08189
   D37        1.01439   0.00495   0.00000   0.00517   0.00519   1.01957
         Item               Value     Threshold  Converged?
 Maximum Force            0.493708     0.000450     NO 
 RMS     Force            0.118601     0.000300     NO 
 Maximum Displacement     0.145313     0.001800     NO 
 RMS     Displacement     0.040264     0.001200     NO 
 Predicted change in Energy=-2.414315D-01
 Lowest energy point so far.  Saving SCF results.
 GradGradGradGradGradGradGradGradGradGradGradGradGradGradGradGradGradGrad

 Leave Link  103 at Mon Aug 19 14:15:45 2024, MaxMem=  8589934592 cpu:               1.3 elap:               0.1
 (Enter /share/apps/g16.b01_avx2/g16/l202.exe)
                          Input orientation:                          
 ---------------------------------------------------------------------
 Center     Atomic      Atomic             Coordinates (Angstroms)
 Number     Number       Type             X           Y           Z
 ---------------------------------------------------------------------
      1          8           0        2.443400    0.528857   -1.365829
      2          6           0        1.857287   -0.484330   -1.093291
      3          8           0        0.492115   -0.654850   -1.363193
      4          6           0       -0.712430   -0.409511   -0.811799
      5          6           0       -1.281823   -1.323441    0.087885
      6          6           0       -1.401566    0.760458   -1.162493
      7          6           0       -2.528809   -1.049383    0.655676
      8          6           0       -2.648383    1.026516   -0.588541
      9          6           0       -3.211626    0.127427    0.324026
     10          9           0       -0.717548   -2.295530    0.340652
     11          9           0       -0.934041    1.478401   -1.933009
     12          9           0       -3.000400   -1.801003    1.393367
     13          9           0       -3.217608    1.987770   -0.877252
     14          9           0       -4.241996    0.346284    0.788373
     15          6           0        2.401756   -1.630820   -0.238899
     16          1           0        1.833074   -2.552703   -0.486388
     17          1           0        2.210885   -1.380524    0.827728
     18          8           0        3.792452   -1.809426   -0.480123
     19          1           0        4.121969   -2.509561    0.088534
 ---------------------------------------------------------------------
                    Distance matrix (angstroms):
                    1          2          3          4          5
     1  O    0.000000
     2  C    1.201813   0.000000
     3  O    2.282254   1.402006   0.000000
     4  C    3.338675   2.586172   1.347277   0.000000
     5  C    4.406992   3.457354   2.387362   1.403177   0.000000
     6  C    3.857298   3.489185   2.372637   1.402399   2.433191
     7  C    5.594657   4.755629   3.654787   2.421188   1.397307
     8  C    5.174755   4.778963   3.645518   2.420729   2.801309
     9  C    5.915748   5.298765   4.144437   2.797209   2.425885
    10  F    4.569555   3.459250   2.656728   2.210258   1.152066
    11  F    3.553933   3.514108   2.628568   2.206906   3.472071
    12  F    6.532715   5.613752   4.594556   3.468978   2.210397
    13  F    5.866357   5.649116   4.580570   3.468019   3.955106
    14  F    7.026268   6.436757   5.295594   3.948369   3.470056
    15  C    2.436373   1.529990   2.421422   3.393813   3.710798
    16  H    3.262197   2.155709   2.483708   3.343465   3.397567
    17  H    2.917447   2.149072   2.877657   3.489511   3.570663
    18  O    2.841124   2.424194   3.606256   4.729031   5.129043
    19  H    3.763609   3.259917   4.327044   5.347170   5.532437
                    6          7          8          9         10
     6  C    0.000000
     7  C    2.802131   0.000000
     8  C    1.398127   2.423165   0.000000
     9  C    2.426270   1.400397   1.399423   0.000000
    10  F    3.473671   2.220989   3.953165   3.477272   0.000000
    11  F    1.152265   3.954018   2.225030   3.479472   4.411231
    12  F    3.955980   1.153915   3.470842   2.215163   2.562066
    13  F    2.210354   3.471110   1.153854   2.214493   5.106883
    14  F    3.470658   2.213709   2.213191   1.151165   4.427344
    15  C    4.586556   5.044680   5.717305   5.909176   3.241569
    16  H    4.679429   4.752926   5.736262   5.769650   2.693660
    17  H    4.646998   4.754361   5.604653   5.650774   3.106476
    18  O    5.835045   6.467305   7.038371   7.311303   4.609779
    19  H    6.539690   6.832761   7.668112   7.796844   4.850804
                   11         12         13         14         15
    11  F    0.000000
    12  F    5.107749   0.000000
    13  F    2.566857   4.422408   0.000000
    14  F    4.430595   2.553120   2.553067   0.000000
    15  C    4.864649   5.645931   6.714085   7.007401   0.000000
    16  H    5.098964   5.240325   6.802798   6.850958   1.111089
    17  H    5.068104   5.258729   6.612178   6.680052   1.112103
    18  O    5.938048   7.046479   7.982314   8.414780   1.422717
    19  H    6.749350   7.275492   8.661878   8.865752   1.959218
                   16         17         18         19
    16  H    0.000000
    17  H    1.801013   0.000000
    18  O    2.095629   2.096613   0.000000
    19  H    2.360390   2.339525   0.960282   0.000000
 Stoichiometry    C8H3F5O3
 Framework group  C1[X(C8H3F5O3)]
 Deg. of freedom    51
 Full point group                 C1      NOp   1
 RotChk:  IX=2 Diff= 5.61D-03
 Largest Abelian subgroup         C1      NOp   1
 Largest concise Abelian subgroup C1      NOp   1
                         Standard orientation:                         
 ---------------------------------------------------------------------
 Center     Atomic      Atomic             Coordinates (Angstroms)
 Number     Number       Type             X           Y           Z
 ---------------------------------------------------------------------
      1          8           0        3.022519    1.647119    0.477459
      2          6           0        2.658617    0.599671    0.014011
      3          8           0        1.427250    0.458828   -0.641364
      4          6           0        0.131224    0.209228   -0.370856
      5          6           0       -0.332276   -1.111306   -0.269550
      6          6           0       -0.755326    1.284126   -0.211653
      7          6           0       -1.678258   -1.351609    0.018642
      8          6           0       -2.100163    1.033822    0.077345
      9          6           0       -2.563154   -0.281224    0.198492
     10          9           0        0.402031   -1.983432   -0.435216
     11          9           0       -0.362406    2.359965   -0.337753
     12          9           0       -2.062307   -2.436743    0.099320
     13          9           0       -2.831381    1.916949    0.206910
     14          9           0       -3.672825   -0.483245    0.428711
     15          6           0        3.326590   -0.758368    0.238535
     16          1           0        3.034357   -1.434245   -0.593516
     17          1           0        2.927305   -1.181272    1.186426
     18          8           0        4.740055   -0.609251    0.301827
     19          1           0        5.138215   -1.465530    0.476176
 ---------------------------------------------------------------------
 Rotational constants (GHZ):           0.9430305           0.3378201           0.2558216
 Leave Link  202 at Mon Aug 19 14:15:45 2024, MaxMem=  8589934592 cpu:               0.1 elap:               0.0
 (Enter /share/apps/g16.b01_avx2/g16/l301.exe)
 Standard basis: def2TZVP (5D, 7F)
 Ernie: Thresh=  0.10000D-02 Tol=  0.10000D-05 Strict=F.
 There are   594 symmetry adapted cartesian basis functions of A   symmetry.
 There are   514 symmetry adapted basis functions of A   symmetry.
   514 basis functions,   840 primitive gaussians,   594 cartesian basis functions
    60 alpha electrons       60 beta electrons
       nuclear repulsion energy      1186.2665349604 Hartrees.
 IExCor= 1009 DFT=T Ex+Corr=PBE1PBE ExCW=0 ScaHFX=  0.250000
 ScaDFX=  0.750000  0.750000  1.000000  1.000000 ScalE2=  1.000000  1.000000
 IRadAn=  99590 IRanWt=     -1 IRanGd=            0 ICorTp=0 IEmpDi=131
 NAtoms=   19 NActive=   19 NUniq=   19 SFac= 1.00D+00 NAtFMM=   60 NAOKFM=F Big=F
 Integral buffers will be    131072 words long.
 Raffenetti 2 integral format.
 Two-electron integral symmetry is turned on.
 R6Disp:  Grimme-D3 Dispersion energy=       -0.0096236487 Hartrees.
 Nuclear repulsion after empirical dispersion term =     1186.2569113117 Hartrees.
[...]
 261,0.00465061,0.07102229,0.60657592,0.00016896,0.00182685,0.00432685,
 -0.00450210,-0.00182240,-0.00927659,0.02409107,0.00683972,-0.01150938,
 -0.05679310,-0.12306931,0.10678123,-0.18055365,0.48514340,-0.00110758,
 0.00024128,-0.00185257,-0.00098265,0.00119761,0.00216191,0.01491348,0.
 00069681,-0.00744565,0.13232492,0.06231748,-0.22474395,-0.16828269,-0.
 23448122,0.50460563,0.00041140,-0.00198605,-0.00291747,0.00485235,0.00
 667150,0.00677144,-0.03676759,0.03689406,-0.01322594,-0.14086739,0.053
 43256,-0.00077436,0.06427306,-0.01137759,-0.03612978,0.60733285,-0.002
 03064,0.00086446,0.00080683,-0.00295723,-0.00137046,-0.00221620,0.0203
 5308,-0.01191322,0.00469563,0.11484323,-0.22004989,0.08522254,-0.04812
 525,-0.01437511,0.05255078,-0.17535229,0.48344056,0.00122683,0.0010773
 4,0.00333622,-0.00351301,-0.00351550,-0.00662784,0.01689559,-0.0086762
 4,0.01242499,-0.06404428,0.12740426,-0.15020160,0.00175626,0.02394558,
 -0.02631339,-0.16969024,-0.23715726,0.50530402,0.00145281,-0.00007147,
 0.00049106,-0.00200602,0.00049809,-0.00167892,0.00561741,0.00113511,0.
 00044232,-0.02388980,-0.04122179,0.06068805,-0.28059468,0.12172032,0.0
 3594179,-0.04507839,0.04100066,-0.00302342,0.60691199,-0.00046693,0.00
 028898,0.00048743,-0.00004988,-0.00035220,-0.00110277,0.00036347,-0.00
 187795,0.00596474,-0.00510901,0.04660252,-0.04190382,0.05787182,-0.121
 71407,0.01915760,0.04152364,-0.03243407,0.01124411,-0.17888986,0.48177
 031,-0.00111635,-0.00020269,-0.00043297,0.00262828,-0.00008382,0.00018
 064,-0.00081829,0.00496815,-0.00073723,0.02333732,-0.01533244,0.000371
 96,0.10347551,-0.02880988,-0.10981260,-0.00383782,0.01094011,-0.001597
 23,-0.17487338,-0.24116227,0.51080024,0.00000526,0.00095913,0.00110301
 ,-0.00275748,-0.00179970,-0.00250715,0.00594315,-0.00176718,0.00264510
 ,-0.01050036,0.06080324,-0.05255847,-0.05192507,0.00458549,0.04040144,
 -0.27876263,0.05942324,0.09935451,0.06397209,-0.04740596,0.00191436,0.
 60600003,-0.00084221,-0.00022316,-0.00092565,0.00331415,-0.00109276,0.
 00164162,-0.00235787,0.00179517,0.00390061,0.02457769,-0.01179774,-0.0
 0380877,0.00378516,0.00038287,0.00479179,0.12260213,-0.12399262,-0.028
 24736,-0.01116738,-0.01338027,0.02305657,-0.18141254,0.48562225,0.0010
 5811,-0.00027188,-0.00030840,0.00014213,0.00109272,0.00063901,-0.00000
 523,0.00545025,-0.00191551,-0.01596029,-0.03158422,0.04533237,0.040046
 43,0.00447567,-0.02765901,0.03226970,0.02016628,-0.10713247,-0.0355479
 0,0.04959681,-0.02514063,-0.16926341,-0.24327719,0.50802362,0.00120867
 ,0.00052537,0.00123132,-0.00333870,-0.00054605,-0.00233386,0.00453949,
 -0.00198983,-0.00056710,-0.00087766,0.00005628,0.00607580,-0.01246579,
 0.02516146,-0.01759787,-0.02479407,-0.00615138,0.02476456,-0.13438705,
 0.11512552,-0.06540283,-0.15513681,-0.06130219,0.13558738,0.61116506,0
 .00025908,-0.00083518,-0.00088662,0.00153521,0.00122241,0.00207385,-0.
 00363329,-0.00008898,-0.00156585,-0.00013631,-0.03272617,0.04075837,0.
 06318706,-0.01411677,-0.03272444,-0.04352542,0.04697869,-0.01657799,0.
 05049359,-0.22297498,0.13351914,0.00295435,-0.12519404,0.06576752,-0.1
 8099976,0.48279662,-0.00063463,0.00005675,-0.00023926,0.00030823,-0.00
 012322,0.00069140,-0.00214756,-0.00151746,-0.00101043,0.00681946,0.041
 89274,-0.04028466,-0.05678793,-0.00404076,0.04778322,0.06490785,-0.044
 86074,-0.00135318,0.00230755,0.08529270,-0.15258101,0.06746964,0.11382
 221,-0.23194920,-0.17216290,-0.23869039,0.50908102,-0.00086393,-0.0007
 2407,0.00225159,-0.00057837,-0.00031883,-0.00266285,0.00418692,-0.0051
 1026,-0.00156598,0.00927076,-0.00836197,0.00734607,-0.11065038,0.09793
 654,-0.04720505,-0.00525563,0.00324130,0.00449649,-0.01549419,0.044038
 48,-0.02776034,0.00273349,-0.00262330,-0.00134565,-0.00088727,-0.00339
 971,0.00782029,0.11751837,0.00014444,-0.00126413,-0.00196241,0.0014654
 4,0.00112919,0.00458246,-0.00655700,0.00218313,-0.00525025,0.01803518,
 -0.02654023,0.02098633,0.09707924,-0.22936553,0.12705992,0.00182485,0.
 00405390,-0.00061083,0.01643193,-0.02839711,0.02640066,-0.00352605,0.0
 0234670,-0.00273483,-0.00118004,0.00566092,-0.00010975,-0.12724352,0.2
 7694977,0.00021254,0.00010585,0.00155286,-0.00205137,-0.00064620,-0.00
 237034,-0.00146596,-0.00397778,0.00158805,-0.01946913,0.04186735,-0.02
 092719,-0.04640110,0.12719685,-0.13512806,0.00600400,-0.00172204,0.002
 15916,0.00138371,0.00517807,0.00213221,-0.00070478,-0.00336722,0.00121
 602,0.00550985,0.00175598,-0.00134696,0.06361982,-0.16818459,0.1509692
 1,0.00050359,-0.00003548,0.00046567,-0.00099140,0.00013386,-0.00083059
 ,0.00424112,-0.00238292,-0.00421092,0.00732231,0.00326441,-0.00268099,
 -0.00494481,0.00511548,0.00163338,-0.13699631,-0.04537319,0.12158801,0
 .00317233,-0.00164615,-0.00270613,-0.02311207,-0.02306947,0.04768832,0
 .00051957,0.00720441,-0.00469916,0.00138932,-0.00093450,0.00036915,0.1
 5176758,0.00088167,0.00019462,0.00046666,-0.00208762,0.00029526,-0.000
 86930,-0.00231050,-0.00009803,-0.00252743,-0.02218084,-0.01363783,0.03
 866917,0.00668402,0.00103323,-0.00143686,-0.04497737,-0.10360173,0.102
 54330,-0.00094265,0.00082159,-0.00308276,0.00479259,0.00650051,-0.0012
 2901,0.00503922,-0.00199220,0.00326896,-0.00025130,-0.00207567,0.00309
 634,0.06127110,0.10958160,-0.00062702,-0.00055423,-0.00106271,0.001622
 76,0.00047791,0.00267596,-0.00540984,-0.00394860,0.00053002,0.02562512
 ,0.01909681,-0.03053425,0.00026720,0.00011391,0.00482937,0.12093746,0.
 10341287,-0.23463379,-0.00357318,-0.00255993,0.00246029,0.01848317,0.0
 1968496,-0.02521986,-0.00220338,0.00154626,0.00477043,-0.00031066,0.00
 357438,-0.00285167,-0.16000102,-0.13600197,0.28292119,-0.00077046,-0.0
 0063215,-0.00107253,0.00301710,0.00079014,0.00234601,-0.00471003,-0.00
 050713,0.00148017,0.00025809,0.00668880,-0.00340034,-0.02151323,-0.022
 73986,0.04625981,0.00242182,-0.00106238,-0.00282703,-0.13683385,-0.044
 99428,0.12365589,-0.00459589,0.00512970,0.00127137,0.00429463,0.004134
 29,-0.00150624,0.00247465,-0.00189738,-0.00411448,-0.00230596,-0.00182
 515,0.00434521,0.15083352,-0.00033295,-0.00015332,-0.00043391,0.001236
 50,0.00017620,0.00077137,-0.00116442,0.00097354,-0.00044660,0.00478267
 ,-0.00211506,0.00345885,0.00540217,0.00655154,-0.00224296,-0.00119781,
 0.00090726,-0.00315712,-0.04496244,-0.10181432,0.10370692,0.00669278,0
 .00103440,-0.00147103,-0.02430830,-0.01168031,0.03911676,-0.00379690,0
 .00328414,-0.00639916,-0.00175521,-0.00114092,0.00352556,0.06171294,0.
 10567004,0.00101539,0.00075472,0.00112562,-0.00329173,-0.00088975,-0.0
 0251532,0.00497586,0.00007167,0.00002397,-0.00176161,0.00194398,0.0035
 4350,0.01658992,0.01874876,-0.02428311,-0.00279929,-0.00319823,0.00256
 502,0.12352615,0.10368898,-0.23714784,-0.00031429,-0.00033625,0.005112
 25,0.02845332,0.01782232,-0.03192478,-0.00205843,-0.00776291,0.0041825
 3,0.00432282,0.00360608,-0.00601421,-0.16196840,-0.13467058,0.28497587
 ,-0.00062407,-0.00059633,-0.00101564,0.00252106,0.00117641,0.00213722,
 -0.00401041,0.00217293,-0.00176912,-0.00113152,-0.00268008,0.00690430,
 0.00224874,-0.00265814,-0.00093661,-0.01474893,0.04267674,-0.02765857,
 -0.00528931,0.00281286,0.00442544,-0.11065128,0.09949583,-0.04813264,0
 .00744547,-0.00700841,0.00804613,-0.00137543,0.00344533,-0.00188197,0.
 00256501,-0.00354645,-0.00220854,0.00136850,-0.00022198,-0.00032480,0.
 11616602,0.00087420,0.00070652,0.00121973,-0.00328277,-0.00113680,-0.0
 0267289,0.00508948,-0.00133702,0.00167784,-0.00102571,0.00440280,0.000
 83006,-0.00262478,0.00216766,-0.00349606,0.01453904,-0.02653314,0.0255
 9321,0.00129400,0.00448515,-0.00111120,0.09936875,-0.22932857,0.129659
 87,0.02137266,-0.02683480,0.02079118,0.00341124,-0.00573610,0.00443646
 ,-0.00172493,0.00316745,-0.00789377,-0.00090630,-0.00212276,0.00362596
 ,-0.12993479,0.27497152,-0.00070903,-0.00031711,-0.00052332,0.00184210
 ,0.00026172,0.00105281,-0.00204248,0.00033054,0.00027829,0.00520718,0.
 00229688,-0.00167144,-0.00088824,-0.00335601,0.00159171,0.00182207,0.0
 0439174,0.00215735,0.00595172,-0.00216421,0.00235703,-0.04814939,0.129
 57000,-0.13581221,-0.02193053,0.04226295,-0.01989594,-0.00191561,0.004
 41269,-0.00228903,-0.00413002,-0.00639534,0.00426926,0.00041568,0.0030
 8153,-0.00295454,0.06588108,-0.16903727,0.15056622,-0.00137306,-0.0008
 4150,-0.00190055,0.00485870,0.00054752,0.00381453,-0.00844353,0.003167
 80,0.00031354,0.00177277,-0.00184768,-0.00154288,0.00523355,-0.0013510
 4,0.00135762,0.00557662,-0.00017151,-0.00084428,-0.03789854,0.01667245
 ,0.01733009,-0.04161141,0.02406106,0.01217802,-0.29784210,0.10923471,0
 .08045569,-0.00275085,0.00356287,-0.00130387,-0.00345322,-0.00070670,0
 .00360435,0.00648349,-0.00192379,-0.00688533,0.00595195,-0.00702546,-0
 .00111723,0.36423207,0.00045192,0.00045251,0.00085383,-0.00197613,-0.0
 0041647,-0.00184191,0.00410698,-0.00066584,0.00033393,-0.00182820,0.00
 069729,-0.00214647,-0.00357006,0.00082143,0.00648621,0.00180106,-0.001
 97852,0.00571662,0.04474490,-0.01101072,-0.01278048,-0.00374605,0.0070
 9509,0.00458052,0.10925875,-0.10030030,-0.01491761,0.00298243,-0.00221
 030,0.00046708,-0.00004199,0.00104606,-0.00063410,-0.00397267,0.000446
 21,-0.00329060,-0.00505731,0.00311380,-0.00539314,-0.14348114,0.102967
 56,0.00030841,0.00029577,0.00065111,-0.00134293,-0.00028982,-0.0014044
 1,0.00300482,-0.00050575,0.00054783,-0.00177389,-0.00215317,0.00083729
 ,0.00336732,0.00488813,-0.00327863,-0.00301492,0.00725798,-0.00066015,
 -0.01215812,0.00820354,0.00908720,0.04195801,-0.01646261,-0.00532137,0
 .08043321,-0.01486205,-0.08162984,-0.00078550,0.00004116,0.00097965,0.
 00303488,-0.00018231,-0.00166527,-0.00470952,-0.00481961,0.00312040,-0
 .00336991,-0.00379186,0.00093112,-0.10519384,0.02240894,0.07768819,0.0
 0931599,0.00382669,-0.00104057,-0.15775471,0.05043467,0.05305672,-0.03
 508532,0.01298402,0.00236418,-0.00093682,0.00022569,-0.00193123,-0.000
 09059,-0.00007675,0.00000803,-0.00038084,0.00022120,-0.00003905,-0.000
 17664,-0.00005285,0.00023248,-0.00002524,0.00026349,-0.00020993,-0.000
 16604,0.00003625,0.00005289,0.00019381,0.00004830,-0.00005763,-0.00007
 630,-0.00018482,0.00017491,0.00012620,0.00005819,-0.00015682,0.0000670
 5,-0.00012485,0.00011450,0.00026102,-0.00010860,-0.00006751,0.52773233
 ,0.01836179,0.00225533,-0.03149974,0.04028313,-0.11123956,-0.01273864,
 0.00085104,0.00943277,-0.00058399,-0.00322554,0.00339836,-0.00257066,0
 .00017011,-0.00004718,-0.00025919,-0.00077315,-0.00017828,0.00063636,0
 .00002380,-0.00002976,-0.00004280,0.00010817,0.00022563,-0.00012416,-0
 .00000195,0.00005846,-0.00004164,0.00019915,-0.00010653,0.00020421,0.0
 0002799,-0.00006651,0.00002111,0.00001901,-0.00003035,-0.00004039,-0.0
 0011006,0.00007006,0.00002172,0.00002447,-0.00001483,0.00000454,0.0117
 2692,0.54226379,0.02144313,-0.03756730,-0.02202797,0.03751244,-0.00842
 543,-0.09200852,-0.01683572,0.00381204,0.01020379,-0.00667712,-0.00076
 120,-0.00049294,-0.00026618,0.00072446,-0.00048565,-0.00017202,-0.0003
 1847,0.00050757,0.00002767,0.00008990,0.00011453,0.00010358,0.00010156
 ,0.00012647,0.00000250,-0.00014412,-0.00008094,0.00006030,-0.00039593,
 0.00006943,0.00010247,-0.00000209,-0.00039734,-0.00003362,0.00002722,0
 .00004358,-0.00000541,0.00003537,0.00001100,-0.00007430,0.00007823,0.0
 0006258,0.01025597,-0.00536435,0.54670163,-0.00247324,0.00547724,0.000
 46249,0.00040294,-0.01407317,0.02386726,-0.00241443,0.00159560,-0.0010
 6091,0.00083710,-0.00016352,-0.00054522,0.00004452,-0.00000399,-0.0000
 2817,-0.00014511,-0.00002688,0.00018717,0.00006159,0.00000870,-0.00006
 554,0.00004250,-0.00002638,0.00000088,0.00006941,-0.00001837,-0.000019
 89,-0.00002710,-0.00001436,0.00002303,0.00004997,0.00001765,-0.0000479
 8,-0.00004985,-0.00002350,0.00006315,-0.00006475,0.00007992,-0.0000415
 7,-0.00008269,0.00003413,0.00002199,-0.05547255,-0.01247602,0.03933350
 ,0.06321971,0.00145313,-0.00383105,-0.00008622,0.00409130,0.00645533,-
 0.01760020,-0.00037729,-0.00023289,0.00049573,-0.00035758,-0.00040185,
 0.00033651,-0.00008791,0.00007576,-0.00001564,0.00009457,-0.00000343,-
 0.00008370,0.00000036,0.00000196,0.00003197,-0.00000734,-0.00001075,0.
 00001843,-0.00000799,-0.00000933,-0.00000103,0.00000812,-0.00001427,-0
 .00001650,-0.00003679,0.00000334,-0.00000289,-0.00000497,0.00000626,0.
 00000338,0.00001754,-0.00001293,0.00000560,0.00000471,0.00000096,0.000
 00054,-0.01370698,-0.07805163,0.08496746,0.01299916,0.08058067,0.00140
 517,-0.00103143,0.00135923,0.00450684,0.00513923,-0.01731482,-0.001543
 97,-0.00015512,0.00092553,0.00057462,-0.00096046,0.00054820,-0.0002737
 2,0.00017498,0.00001584,0.00007004,0.00000120,-0.00006740,0.00003016,-
 0.00003431,0.00001886,0.00000570,-0.00004164,0.00002520,0.00003205,-0.
 00001843,-0.00001053,0.00002055,-0.00001292,-0.00000278,0.00001013,0.0
 0002134,-0.00003858,-0.00005279,-0.00000624,0.00004752,-0.00000893,0.0
 0002589,-0.00001631,-0.00004357,0.00002072,0.00001362,0.03403246,0.084
 90704,-0.26051552,-0.02753714,-0.08968859,0.29202716,-0.00403608,-0.00
 073898,0.00493244,0.00999245,0.02592177,-0.00206437,-0.00293497,-0.000
 58620,0.00029658,0.00087693,-0.00073433,-0.00017005,-0.00002904,0.0001
 9825,-0.00003729,0.00000091,-0.00002079,0.00012176,0.00006747,0.000065
 47,-0.00005926,0.00004567,-0.00011287,0.00005444,0.00009110,-0.0000656
 0,-0.00002825,0.00000050,-0.00014033,0.00000082,0.00004349,0.00005083,
 -0.00010401,-0.00007192,-0.00002905,0.00009726,-0.00004567,0.00007744,
 -0.00005023,-0.00014065,0.00006524,0.00004522,-0.05709812,-0.04149491,
 0.00006361,0.00138864,-0.00713636,0.00095623,0.06957196,0.00212031,0.0
 0096320,-0.00036964,-0.00380124,-0.01849143,-0.00060764,0.00006448,0.0
 0149199,-0.00018039,0.00067467,0.00048993,-0.00035045,-0.00000282,-0.0
 0005640,0.00000631,-0.00021421,0.00004036,0.00004226,-0.00000383,0.000
 01983,-0.00002065,0.00001154,-0.00001222,-0.00004848,0.00002060,0.0000
 0258,0.00001083,0.00005141,-0.00000328,0.00004083,0.00001871,0.0000088
 8,0.00002046,-0.00000316,-0.00001157,0.00000114,-0.00002366,0.00002338
 ,-0.00000392,-0.00002819,0.00000477,0.00000310,-0.04605184,-0.29156096
 ,-0.00924716,-0.00096881,-0.01102550,0.00002847,0.05634066,0.31442036,
 0.00220372,0.00108275,-0.00173864,-0.00039280,-0.01903847,-0.00191785,
 -0.00119797,0.00104595,-0.00000657,0.00042206,0.00056752,-0.00053368,0
 .00003693,-0.00010606,0.00000766,-0.00019887,0.00001779,0.00009043,0.0
 0001032,0.00001527,-0.00002152,0.00001820,-0.00000103,-0.00004587,0.00
 002012,0.00000401,-0.00000225,-0.00002035,0.00002707,0.00003187,0.0000
 1721,0.00000117,0.00001487,-0.00000930,-0.00001221,0.00001037,-0.00003
 506,0.00003501,-0.00000850,-0.00002145,0.00000467,0.00000392,-0.002953
 74,-0.00712689,-0.04455266,0.00418390,0.02921470,0.00146054,0.00882426
 ,0.01604596,0.05050543,0.00061388,-0.00051672,-0.00043906,-0.03552043,
 -0.00697466,-0.02465051,-0.01351482,0.00497707,0.00228627,0.00184957,-
 0.00146418,-0.00215272,-0.00053015,0.00107066,-0.00049442,-0.00103737,
 -0.00046528,0.00123230,0.00040155,0.00012990,-0.00037626,0.00033755,-0
 .00033983,0.00017378,0.00057120,-0.00025090,-0.00019897,0.00009934,-0.
 00052988,0.00032100,0.00030518,0.00028579,-0.00057094,-0.00043481,-0.0
 0017330,0.00052540,-0.00039636,0.00054775,-0.00026866,-0.00078750,0.00
 034143,0.00024447,-0.19795024,-0.03121356,-0.09891734,-0.00734055,0.00
 226666,-0.01261181,-0.01939356,-0.00812915,-0.01238229,0.58910429,0.00
 045647,0.00077169,0.00350480,0.01474799,0.00452140,0.00851491,0.004741
 15,-0.00145468,-0.00095400,0.00081854,0.00060032,0.00023271,0.00022652
 ,-0.00033245,0.00020297,0.00011578,0.00015702,-0.00027088,-0.00010111,
 -0.00001775,0.00002819,-0.00006706,0.00003754,-0.00006570,-0.00010434,
 0.00005526,0.00006105,-0.00004238,0.00014768,-0.00006617,-0.00004935,-
 0.00004989,0.00014754,0.00009606,0.00003007,-0.00011169,0.00007154,-0.
 00010321,0.00004757,0.00014458,-0.00006734,-0.00005068,-0.00812749,-0.
 07864397,-0.02910747,0.00789569,0.00623591,0.00275804,-0.03086437,0.00
 272031,-0.02192982,-0.16153293,0.19561885,0.00132540,0.00311974,0.0042
 6638,0.00755787,0.00028504,0.00583431,0.00202901,-0.00079003,-0.000263
 40,0.00156697,-0.00072079,0.00041251,-0.00014182,0.00006437,0.00005149
 ,0.00007696,0.00004635,-0.00008828,0.00002235,0.00000152,-0.00003188,0
 .00000548,-0.00007606,0.00002182,0.00004378,-0.00001390,-0.00000147,-0
 .00000407,0.00000182,0.00000790,-0.00000316,0.00003033,0.00001229,-0.0
 0004058,-0.00001641,0.00004488,-0.00001382,0.00002547,-0.00002265,-0.0
 0006298,0.00002264,0.00001445,-0.06493095,-0.03792687,-0.14298787,-0.0
 3821280,-0.00808902,-0.01897958,-0.01247175,-0.00457718,-0.00353646,-0
 .03056665,0.16316379,0.27490590,0.00119849,-0.00073272,-0.00078365,-0.
 00366259,-0.00176885,-0.00372670,-0.00072328,0.00061650,0.00051838,-0.
 00029345,0.00006529,-0.00015154,-0.00000620,0.00000799,-0.00003835,-0.
 00003474,-0.00002260,0.00001640,-0.00000880,0.00000262,0.00001683,-0.0
 0000151,0.00002483,-0.00000551,-0.00000910,-0.00000115,-0.00000219,0.0
 0001598,-0.00001454,0.00000636,0.00000058,-0.00000944,-0.00000361,0.00
 000801,0.00000439,-0.00000856,0.00000394,-0.00000491,0.00000865,0.0000
 1339,-0.00000470,-0.00000219,-0.03248296,0.01749962,0.01407654,0.00195
 390,0.00078768,0.00042796,0.00167090,-0.00007547,0.00147509,-0.3163767
 7,0.17157472,0.13382077,0.34873421,0.00042638,0.00058065,0.00069857,-0
 .00081042,-0.00162841,-0.00142784,-0.00101611,0.00065060,-0.00003621,-
 0.00000957,0.00009943,-0.00019357,-0.00001597,0.00005674,-0.00005239,-
 0.00009528,-0.00001178,0.00009385,0.00001778,0.00001285,-0.00002272,0.
 00003260,-0.00000804,-0.00000159,0.00003198,-0.00002186,-0.00001058,0.
 00000358,-0.00004226,0.00003064,0.00001403,0.00001023,-0.00002628,-0.0
 0002551,-0.00001104,0.00003341,-0.00003197,0.00003698,-0.00001596,-0.0
 0004317,0.00001864,0.00001413,-0.01139125,0.00226515,0.00149728,-0.000
 31310,0.00023342,-0.00112779,-0.00079586,0.00097576,0.00015260,0.20197
 111,-0.13022676,-0.11455080,-0.18794925,0.12700970,0.00109325,0.000225
 10,0.00094418,-0.00216007,-0.00175914,-0.00444320,-0.00190262,0.000532
 63,0.00055073,-0.00019288,-0.00016221,-0.00014874,-0.00006952,0.000139
 14,-0.00004421,-0.00009881,-0.00003717,0.00013057,0.00003206,0.0000066
 4,-0.00002005,0.00003530,-0.00002554,0.00000776,0.00004454,-0.00002662
 ,-0.00001562,0.00001937,-0.00006206,0.00002714,0.00002995,0.00002370,-
 0.00006600,-0.00003931,-0.00001238,0.00004425,-0.00003316,0.00004697,-
 0.00002085,-0.00006356,0.00003092,0.00002232,-0.02890469,0.01252435,0.
 00570885,-0.00058415,0.00050945,0.00050382,-0.00040742,-0.00079388,0.0
 0023891,0.17884643,-0.12610517,-0.11966033,-0.14564469,0.11494525,0.11
 624049\\0.00000671,0.00001200,0.00001516,-0.00004166,-0.00001075,-0.00
 001706,0.00005927,-0.00002643,-0.00003094,-0.00008584,0.00004009,0.000
 05028,-0.00000854,0.00004894,-0.00003615,0.00000733,-0.00002317,0.0000
 1238,-0.00001513,-0.00000435,0.00002170,-0.00000486,-0.00000038,0.0000
 0549,0.00002774,-0.00000685,-0.00001086,0.00001441,-0.00004035,0.00002
 849,0.00000772,0.00000995,-0.00002004,0.00001556,0.00002172,-0.0000266
 3,0.00000264,-0.00000692,0.00000496,-0.00000795,0.00000862,0.00000180,
 0.00002193,0.00000706,0.00001010,-0.00000148,-0.00000744,0.00000355,-0
 .00000135,-0.00000767,-0.00000165,0.00000128,-0.00001077,-0.00001482,0
 .00000220,-0.00000331,0.00000424\\\@


 LET US LEARN TO DREAM, GENTLEMEN, THEN PERHAPS WE SHALL
 DISCOVER THE TRUTH;  BUT LET US BEWARE OF PUBLISHING
 OUR DREAMS ABROAD BEFORE THEY HAVE BEEN SCRUTINIZED
 BY OUR VIGILANT INTELLECT ... LET US ALWAYS ALLOW
 THE FRUIT TO HANG UNTIL IT IS RIPE.  UNRIPE FRUIT
 BRINGS EVEN THE GROWER BUT LITTLE PROFIT; IT DAMAGES
 THE HEALTH OF THOSE WHO CONSUME IT; IT ENDANGERS
 PARTICULARLY THE YOUTH WHO CANNOT YET DISTINGUISH
 BETWEEN RIPE AND UNRIPE FRUIT.

                                  -- KEKULE, 1890
 Job cpu time:       0 days  5 hours 34 minutes 35.6 seconds.
 Elapsed time:       0 days  0 hours 13 minutes 57.9 seconds.
 File lengths (MBytes):  RWF=    528 Int=      0 D2E=      0 Chk=     28 Scr=      1
 Normal termination of Gaussian 16 at Mon Aug 19 15:11:17 2024.
