 Entering Gaussian System, Link 0=g16
 Input=input.com
 Output=input.log
 Initial command:
 /share/apps/g16.b01_avx2/g16/l1.exe "/scratch/Gau-1108146.inp" -scrdir="/scratch/"
 Entering Link 1 = /share/apps/g16.b01_avx2/g16/l1.exe PID=   1108148.
  
 Copyright (c) 1988-2017, Gaussian, Inc.  All Rights Reserved.
  
 This is part of the Gaussian(R) 16 program.  It is based on
 the Gaussian(R) 09 system (copyright 2009, Gaussian, Inc.),
 the Gaussian(R) 03 system (copyright 2003, Gaussian, Inc.),
 the Gaussian(R) 98 system (copyright 1998, Gaussian, Inc.),
 the Gaussian(R) 94 system (copyright 1995, Gaussian, Inc.),
 the Gaussian 92(TM) system (copyright 1992, Gaussian, Inc.),
 the Gaussian 90(TM) system (copyright 1990, Gaussian, Inc.),
 the Gaussian 88(TM) system (copyright 1988, Gaussian, Inc.),
 the Gaussian 86(TM) system (copyright 1986, Carnegie Mellon
 University), and the Gaussian 82(TM) system (copyright 1983,
 Carnegie Mellon University). Gaussian is a federally registered
 trademark of Gaussian, Inc.
  
 This software contains proprietary and confidential information,
 including trade secrets, belonging to Gaussian, Inc.
  
 This software is provided under written license and may be
 used, copied, transmitted, or stored only in accord with that
 written license.
  
 The following legend is applicable only to US Government
 contracts under FAR:
  
                    RESTRICTED RIGHTS LEGEND
  
 Use, reproduction and disclosure by the US Government is
 subject to restrictions as set forth in subparagraphs (a)
 and (c) of the Commercial Computer Software - Restricted
 Rights clause in FAR 52.227-19.
  
 Gaussian, Inc.
 340 Quinnipiac St., Bldg. 40, Wallingford CT 06492
  
  
 ---------------------------------------------------------------
 Warning -- This program may not be used in any manner that
 competes with the business of Gaussian, Inc. or will provide
 assistance to any competitor of Gaussian, Inc.  The licensee
 of this program is prohibited from giving any competitor of
 Gaussian, Inc. access to this program.  By using this program,
 the user acknowledges that Gaussian, Inc. is engaged in the
 business of creating and licensing software in the field of
 computational chemistry and represents and warrants to the
 licensee that it is not a competitor of Gaussian, Inc. and that
 it will not use this program in any manner prohibited above.
 ---------------------------------------------------------------
  

 Cite this work as:
 Gaussian 16, Revision B.01,
 M. J. Frisch, G. W. Trucks, H. B. Schlegel, G. E. Scuseria, 
 M. A. Robb, J. R. Cheeseman, G. Scalmani, V. Barone, 
 G. A. Petersson, H. Nakatsuji, X. Li, M. Caricato, A. V. Marenich, 
 J. Bloino, B. G. Janesko, R. Gomperts, B. Mennucci, H. P. Hratchian, 
 J. V. Ortiz, A. F. Izmaylov, J. L. Sonnenberg, D. Williams-Young, 
 F. Ding, F. Lipparini, F. Egidi, J. Goings, B. Peng, A. Petrone, 
 T. Henderson, D. Ranasinghe, V. G. Zakrzewski, J. Gao, N. Rega, 
 G. Zheng, W. Liang, M. Hada, M. Ehara, K. Toyota, R. Fukuda, 
 J. Hasegawa, M. Ishida, T. Nakajima, Y. Honda, O. Kitao, H. Nakai, 
 T. Vreven, K. Throssell, J. A. Montgomery, Jr., J. E. Peralta, 
 F. Ogliaro, M. J. Bearpark, J. J. Heyd, E. N. Brothers, K. N. Kudin, 
 V. N. Staroverov, T. A. Keith, R. Kobayashi, J. Normand, 
 K. Raghavachari, A. P. Rendell, J. C. Burant, S. S. Iyengar, 
 J. Tomasi, M. Cossi, J. M. Millam, M. Klene, C. Adamo, R. Cammi, 
 J. W. Ochterski, R. L. Martin, K. Morokuma, O. Farkas, 
 J. B. Foresman, and D. J. Fox, Gaussian, Inc., Wallingford CT, 2016.
 
 ******************************************
 Gaussian 16:  ES64L-G16RevB.01 20-Dec-2017
                10-Jul-2024 
 ******************************************
 %nproc=16
 Will use up to   16 processors via shared memory.
 %mem=60GB
 ----------------------------------------------------------------------
 #P PBE1PBE/def2TZVP opt=(calcfc, ts, noeigentest) freq EmpiricalDisper
 sion=GD3 Int=(grid=99590) scrf=(iefpcm, solvent=water)
 ----------------------------------------------------------------------
 1/5=1,10=4,11=1,18=20,26=6,38=1/1,3;
 2/9=110,12=2,17=6,18=5,40=1/2;
 3/5=44,7=101,11=2,25=1,30=1,70=2201,71=2,72=1,74=-13,75=99590,124=31,140=1/1,2,3;
 4//1;
 5/5=2,38=5,53=1/2;
 8/6=4,10=90,11=11/1;
 11/6=1,8=1,9=11,15=111,16=1/1,2,10;
 10/6=1,13=1/2;
 6/7=2,8=2,9=2,10=2,28=1/1;
 7/10=1,18=20,25=1/1,2,3,16;
 1/5=1,10=4,11=1,18=20,26=6/3(2);
 2/9=110/2;
 99//99;
 2/9=110/2;
 3/5=44,7=101,11=2,25=1,30=1,70=2205,71=1,72=1,74=-13,75=99590,124=31/1,2,3;
 4/5=5,16=3,69=1/1;
 5/5=2,38=5,53=1/2;
 7//1,2,3,16;
 1/5=1,11=1,18=20,26=6/3(-5);
 2/9=110/2;
 6/7=2,8=2,9=2,10=2,19=2,28=1/1;
 99/9=1/99;
 Leave Link    1 at Wed Jul 10 18:51:42 2024, MaxMem=  8053063680 cpu:               0.4 elap:               0.0
 (Enter /share/apps/g16.b01_avx2/g16/l101.exe)
 ----------------
 tfp-pyridine ts2
 ----------------
 Symbolic Z-matrix:
 Charge =  0 Multiplicity = 1
 O                     1.29918   0.37083   1.47788 
 C                     1.82894   0.69366   0.4605 
 C                     2.27483   2.04695   0.04649 
 H                     1.68204   2.79364   0.56903 
 H                     3.32658   2.16034   0.33263 
 H                     2.1888    2.18315  -1.02995 
 H                     3.03367  -0.07116  -1.08188 
 N                     2.30639  -0.41673  -0.45846 
 H                     1.42913  -0.54646  -1.02321 
 C                     2.73077  -1.65152   0.22465 
 H                     2.9481   -2.40056  -0.53288 
 H                     3.6181   -1.4464    0.81985 
 H                     1.91455  -1.989     0.85424 
 C                    -3.04692  -0.02044   0.8459 
 C                    -2.01762   0.69489   0.20704 
 C                    -1.02311  -0.02168  -0.46117 
 C                    -1.08934  -1.41607  -0.46858 
 C                    -2.15834  -2.04107   0.19936 
 N                    -3.12637  -1.3653    0.84877 
 O                     0.04447   0.66037  -1.12448 
 F                    -0.15309  -2.15596  -1.09986 
 F                    -1.99976   2.04427   0.24396 
 F                    -4.03177   0.62604   1.50516 
 F                    -2.26763  -3.38646   0.22135 
 
 Add virtual bond connecting atoms O20        and H9         Dist= 3.48D+00.
 ITRead=  0  0  0  0  0  0  0  0  0  0  0  0  0  0  0  0  0  0  0  0
 ITRead=  0  0  0  0
 MicOpt= -1 -1 -1 -1 -1 -1 -1 -1 -1 -1 -1 -1 -1 -1 -1 -1 -1 -1 -1 -1
 MicOpt= -1 -1 -1 -1
 NAtoms=     24 NQM=       24 NQMF=       0 NMMI=      0 NMMIF=      0
                NMic=       0 NMicF=      0.
                    Isotopes and Nuclear Properties:
 (Nuclear quadrupole moments (NQMom) in fm**2, nuclear magnetic moments (NMagM)
  in nuclear magnetons)

  Atom         1           2           3           4           5           6           7           8           9          10
 IAtWgt=          16          12          12           1           1           1           1          14           1          12
 AtmWgt=  15.9949146  12.0000000  12.0000000   1.0078250   1.0078250   1.0078250   1.0078250  14.0030740   1.0078250  12.0000000
 NucSpn=           0           0           0           1           1           1           1           2           1           0
 AtZEff=  -0.0000000  -0.0000000  -0.0000000  -0.0000000  -0.0000000  -0.0000000  -0.0000000  -0.0000000  -0.0000000  -0.0000000
 NQMom=    0.0000000   0.0000000   0.0000000   0.0000000   0.0000000   0.0000000   0.0000000   2.0440000   0.0000000   0.0000000
 NMagM=    0.0000000   0.0000000   0.0000000   2.7928460   2.7928460   2.7928460   2.7928460   0.4037610   2.7928460   0.0000000
 AtZNuc=   8.0000000   6.0000000   6.0000000   1.0000000   1.0000000   1.0000000   1.0000000   7.0000000   1.0000000   6.0000000

  Atom        11          12          13          14          15          16          17          18          19          20
 IAtWgt=           1           1           1          12          12          12          12          12          14          16
 AtmWgt=   1.0078250   1.0078250   1.0078250  12.0000000  12.0000000  12.0000000  12.0000000  12.0000000  14.0030740  15.9949146
 NucSpn=           1           1           1           0           0           0           0           0           2           0
 AtZEff=  -0.0000000  -0.0000000  -0.0000000  -0.0000000  -0.0000000  -0.0000000  -0.0000000  -0.0000000  -0.0000000  -0.0000000
 NQMom=    0.0000000   0.0000000   0.0000000   0.0000000   0.0000000   0.0000000   0.0000000   0.0000000   2.0440000   0.0000000
 NMagM=    2.7928460   2.7928460   2.7928460   0.0000000   0.0000000   0.0000000   0.0000000   0.0000000   0.4037610   0.0000000
 AtZNuc=   1.0000000   1.0000000   1.0000000   6.0000000   6.0000000   6.0000000   6.0000000   6.0000000   7.0000000   8.0000000

  Atom        21          22          23          24
 IAtWgt=          19          19          19          19
 AtmWgt=  18.9984032  18.9984032  18.9984032  18.9984032
 NucSpn=           1           1           1           1
 AtZEff=  -0.0000000  -0.0000000  -0.0000000  -0.0000000
 NQMom=    0.0000000   0.0000000   0.0000000   0.0000000
 NMagM=    2.6288670   2.6288670   2.6288670   2.6288670
 AtZNuc=   9.0000000   9.0000000   9.0000000   9.0000000
 Leave Link  101 at Wed Jul 10 18:51:42 2024, MaxMem=  8053063680 cpu:               5.2 elap:               0.3
 (Enter /share/apps/g16.b01_avx2/g16/l103.exe)

 GradGradGradGradGradGradGradGradGradGradGradGradGradGradGradGradGradGrad
 Berny optimization.
 Initialization pass.
                           ----------------------------
                           !    Initial Parameters    !
                           ! (Angstroms and Degrees)  !
 --------------------------                            --------------------------
 ! Name  Definition              Value          Derivative Info.                !
 --------------------------------------------------------------------------------
 ! R1    R(1,2)                  1.1916         calculate D2E/DX2 analytically  !
 ! R2    R(2,3)                  1.4838         calculate D2E/DX2 analytically  !
 ! R3    R(2,8)                  1.5184         calculate D2E/DX2 analytically  !
 ! R4    R(3,4)                  1.0872         calculate D2E/DX2 analytically  !
 ! R5    R(3,5)                  1.0959         calculate D2E/DX2 analytically  !
 ! R6    R(3,6)                  1.0884         calculate D2E/DX2 analytically  !
 ! R7    R(7,8)                  1.0183         calculate D2E/DX2 analytically  !
 ! R8    R(8,9)                  1.0514         calculate D2E/DX2 analytically  !
 ! R9    R(8,10)                 1.4736         calculate D2E/DX2 analytically  !
 ! R10   R(9,20)                 1.8396         calculate D2E/DX2 analytically  !
 ! R11   R(10,11)                1.0873         calculate D2E/DX2 analytically  !
 ! R12   R(10,12)                1.088          calculate D2E/DX2 analytically  !
 ! R13   R(10,13)                1.0847         calculate D2E/DX2 analytically  !
 ! R14   R(14,15)                1.4069         calculate D2E/DX2 analytically  !
 ! R15   R(14,19)                1.3472         calculate D2E/DX2 analytically  !
 ! R16   R(14,23)                1.35           calculate D2E/DX2 analytically  !
 ! R17   R(15,16)                1.3961         calculate D2E/DX2 analytically  !
 ! R18   R(15,22)                1.35           calculate D2E/DX2 analytically  !
 ! R19   R(16,17)                1.396          calculate D2E/DX2 analytically  !
 ! R20   R(16,20)                1.43           calculate D2E/DX2 analytically  !
 ! R21   R(17,18)                1.407          calculate D2E/DX2 analytically  !
 ! R22   R(17,21)                1.35           calculate D2E/DX2 analytically  !
 ! R23   R(18,19)                1.3474         calculate D2E/DX2 analytically  !
 ! R24   R(18,24)                1.35           calculate D2E/DX2 analytically  !
 ! A1    A(1,2,3)              128.2376         calculate D2E/DX2 analytically  !
 ! A2    A(1,2,8)              117.2844         calculate D2E/DX2 analytically  !
 ! A3    A(3,2,8)              113.8048         calculate D2E/DX2 analytically  !
 ! A4    A(2,3,4)              109.1745         calculate D2E/DX2 analytically  !
 ! A5    A(2,3,5)              108.0549         calculate D2E/DX2 analytically  !
 ! A6    A(2,3,6)              111.4894         calculate D2E/DX2 analytically  !
 ! A7    A(4,3,5)              109.0709         calculate D2E/DX2 analytically  !
 ! A8    A(4,3,6)              110.261          calculate D2E/DX2 analytically  !
 ! A9    A(5,3,6)              108.7319         calculate D2E/DX2 analytically  !
 ! A10   A(2,8,7)              110.2995         calculate D2E/DX2 analytically  !
 ! A11   A(2,8,9)               98.7991         calculate D2E/DX2 analytically  !
 ! A12   A(2,8,10)             115.0113         calculate D2E/DX2 analytically  !
 ! A13   A(7,8,9)              107.9957         calculate D2E/DX2 analytically  !
 ! A14   A(7,8,10)             111.2522         calculate D2E/DX2 analytically  !
 ! A15   A(9,8,10)             112.7002         calculate D2E/DX2 analytically  !
 ! A16   A(8,9,20)             125.2174         calculate D2E/DX2 analytically  !
 ! A17   A(8,10,11)            108.1721         calculate D2E/DX2 analytically  !
 ! A18   A(8,10,12)            109.2992         calculate D2E/DX2 analytically  !
 ! A19   A(8,10,13)            108.2451         calculate D2E/DX2 analytically  !
 ! A20   A(11,10,12)           110.366          calculate D2E/DX2 analytically  !
 ! A21   A(11,10,13)           109.9062         calculate D2E/DX2 analytically  !
 ! A22   A(12,10,13)           110.7841         calculate D2E/DX2 analytically  !
 ! A23   A(15,14,19)           123.4828         calculate D2E/DX2 analytically  !
 ! A24   A(15,14,23)           120.7972         calculate D2E/DX2 analytically  !
 ! A25   A(19,14,23)           115.72           calculate D2E/DX2 analytically  !
 ! A26   A(14,15,16)           118.5252         calculate D2E/DX2 analytically  !
 ! A27   A(14,15,22)           120.3635         calculate D2E/DX2 analytically  !
 ! A28   A(16,15,22)           121.1114         calculate D2E/DX2 analytically  !
 ! A29   A(15,16,17)           118.7792         calculate D2E/DX2 analytically  !
 ! A30   A(15,16,20)           120.5988         calculate D2E/DX2 analytically  !
 ! A31   A(17,16,20)           120.6219         calculate D2E/DX2 analytically  !
 ! A32   A(16,17,18)           118.5054         calculate D2E/DX2 analytically  !
 ! A33   A(16,17,21)           121.1328         calculate D2E/DX2 analytically  !
 ! A34   A(18,17,21)           120.3618         calculate D2E/DX2 analytically  !
 ! A35   A(17,18,19)           123.4969         calculate D2E/DX2 analytically  !
 ! A36   A(17,18,24)           120.7935         calculate D2E/DX2 analytically  !
 ! A37   A(19,18,24)           115.7097         calculate D2E/DX2 analytically  !
 ! A38   A(14,19,18)           117.2105         calculate D2E/DX2 analytically  !
 ! A39   A(9,20,16)            102.9147         calculate D2E/DX2 analytically  !
 ! D1    D(1,2,3,4)            -25.4352         calculate D2E/DX2 analytically  !
 ! D2    D(1,2,3,5)             93.0674         calculate D2E/DX2 analytically  !
 ! D3    D(1,2,3,6)           -147.5037         calculate D2E/DX2 analytically  !
 ! D4    D(8,2,3,4)            164.329          calculate D2E/DX2 analytically  !
 ! D5    D(8,2,3,5)            -77.1683         calculate D2E/DX2 analytically  !
 ! D6    D(8,2,3,6)             42.2606         calculate D2E/DX2 analytically  !
 ! D7    D(1,2,8,7)           -158.0456         calculate D2E/DX2 analytically  !
 ! D8    D(1,2,8,9)             88.9635         calculate D2E/DX2 analytically  !
 ! D9    D(1,2,8,10)           -31.2439         calculate D2E/DX2 analytically  !
 ! D10   D(3,2,8,7)             13.3342         calculate D2E/DX2 analytically  !
 ! D11   D(3,2,8,9)            -99.6567         calculate D2E/DX2 analytically  !
 ! D12   D(3,2,8,10)           140.1359         calculate D2E/DX2 analytically  !
 ! D13   D(2,8,9,20)            17.1731         calculate D2E/DX2 analytically  !
 ! D14   D(7,8,9,20)           -97.6235         calculate D2E/DX2 analytically  !
 ! D15   D(10,8,9,20)          139.0778         calculate D2E/DX2 analytically  !
 ! D16   D(2,8,10,11)          174.1198         calculate D2E/DX2 analytically  !
 ! D17   D(2,8,10,12)          -65.6791         calculate D2E/DX2 analytically  !
 ! D18   D(2,8,10,13)           55.0726         calculate D2E/DX2 analytically  !
 ! D19   D(7,8,10,11)          -59.5659         calculate D2E/DX2 analytically  !
 ! D20   D(7,8,10,12)           60.6352         calculate D2E/DX2 analytically  !
 ! D21   D(7,8,10,13)         -178.6132         calculate D2E/DX2 analytically  !
 ! D22   D(9,8,10,11)           61.9016         calculate D2E/DX2 analytically  !
 ! D23   D(9,8,10,12)         -177.8973         calculate D2E/DX2 analytically  !
 ! D24   D(9,8,10,13)          -57.1457         calculate D2E/DX2 analytically  !
 ! D25   D(8,9,20,16)         -112.4225         calculate D2E/DX2 analytically  !
 ! D26   D(19,14,15,16)          0.01           calculate D2E/DX2 analytically  !
 ! D27   D(19,14,15,22)        179.9941         calculate D2E/DX2 analytically  !
 ! D28   D(23,14,15,16)       -179.9926         calculate D2E/DX2 analytically  !
 ! D29   D(23,14,15,22)         -0.0086         calculate D2E/DX2 analytically  !
 ! D30   D(15,14,19,18)         -0.001          calculate D2E/DX2 analytically  !
 ! D31   D(23,14,19,18)       -179.9985         calculate D2E/DX2 analytically  !
 ! D32   D(14,15,16,17)         -0.0113         calculate D2E/DX2 analytically  !
 ! D33   D(14,15,16,20)       -179.9425         calculate D2E/DX2 analytically  !
 ! D34   D(22,15,16,17)       -179.9952         calculate D2E/DX2 analytically  !
 ! D35   D(22,15,16,20)          0.0736         calculate D2E/DX2 analytically  !
 ! D36   D(15,16,17,18)          0.0043         calculate D2E/DX2 analytically  !
 ! D37   D(15,16,17,21)       -179.9944         calculate D2E/DX2 analytically  !
 ! D38   D(20,16,17,18)        179.9354         calculate D2E/DX2 analytically  !
 ! D39   D(20,16,17,21)         -0.0632         calculate D2E/DX2 analytically  !
 ! D40   D(15,16,20,9)         150.8635         calculate D2E/DX2 analytically  !
 ! D41   D(17,16,20,9)         -29.0664         calculate D2E/DX2 analytically  !
 ! D42   D(16,17,18,19)          0.0051         calculate D2E/DX2 analytically  !
 ! D43   D(16,17,18,24)        179.9933         calculate D2E/DX2 analytically  !
 ! D44   D(21,17,18,19)       -179.9962         calculate D2E/DX2 analytically  !
 ! D45   D(21,17,18,24)         -0.008          calculate D2E/DX2 analytically  !
 ! D46   D(17,18,19,14)         -0.0067         calculate D2E/DX2 analytically  !
 ! D47   D(24,18,19,14)       -179.9955         calculate D2E/DX2 analytically  !
 --------------------------------------------------------------------------------
 Trust Radius=3.00D-01 FncErr=5.00D-06 GrdErr=5.00D-06 EigMax=2.50D+02 EigMin=1.00D-04
 Number of steps in this run=    120 maximum allowed number of steps=    144.
 Search for a saddle point of order  1.
 GradGradGradGradGradGradGradGradGradGradGradGradGradGradGradGradGradGrad

 Leave Link  103 at Wed Jul 10 18:51:42 2024, MaxMem=  8053063680 cpu:               0.1 elap:               0.0
 (Enter /share/apps/g16.b01_avx2/g16/l202.exe)
                          Input orientation:                          
 ---------------------------------------------------------------------
 Center     Atomic      Atomic             Coordinates (Angstroms)
 Number     Number       Type             X           Y           Z
 ---------------------------------------------------------------------
      1          8           0        1.299182    0.370829    1.477882
      2          6           0        1.828939    0.693664    0.460504
      3          6           0        2.274827    2.046950    0.046492
      4          1           0        1.682040    2.793642    0.569029
      5          1           0        3.326581    2.160341    0.332630
      6          1           0        2.188800    2.183150   -1.029951
      7          1           0        3.033671   -0.071155   -1.081879
      8          7           0        2.306390   -0.416727   -0.458456
      9          1           0        1.429126   -0.546464   -1.023209
     10          6           0        2.730766   -1.651516    0.224646
     11          1           0        2.948099   -2.400558   -0.532882
     12          1           0        3.618104   -1.446396    0.819847
     13          1           0        1.914548   -1.988999    0.854235
     14          6           0       -3.046920   -0.020442    0.845900
     15          6           0       -2.017617    0.694894    0.207045
     16          6           0       -1.023106   -0.021681   -0.461169
     17          6           0       -1.089335   -1.416066   -0.468580
     18          6           0       -2.158344   -2.041068    0.199356
     19          7           0       -3.126375   -1.365299    0.848772
     20          8           0        0.044474    0.660370   -1.124479
     21          9           0       -0.153094   -2.155958   -1.099858
     22          9           0       -1.999755    2.044271    0.243963
     23          9           0       -4.031773    0.626039    1.505163
     24          9           0       -2.267625   -3.386458    0.221354
 ---------------------------------------------------------------------
                    Distance matrix (angstroms):
                    1          2          3          4          5
     1  O    0.000000
     2  C    1.191605   0.000000
     3  C    2.410424   1.483781   0.000000
     4  H    2.615840   2.107905   1.087194   0.000000
     5  H    2.936716   2.100101   1.095864   1.778052   0.000000
     6  H    3.219496   2.137645   1.088430   1.785005   1.775301
     7  H    3.123488   2.101255   2.517029   3.572039   2.658234
     8  N    2.320370   1.518359   2.515089   3.428120   2.882340
     9  H    2.667165   1.974632   2.930063   3.708840   3.572874
    10  C    2.776673   2.523646   3.730720   4.580159   3.859652
    11  H    3.800353   3.437084   4.535339   5.458647   4.657699
    12  H    3.018728   2.812489   3.821771   4.667888   3.651153
    13  H    2.517221   2.712754   4.131723   4.796776   4.413947
    14  C    4.409206   4.942922   5.764907   5.509881   6.755795
    15  C    3.566679   3.854898   4.503211   4.268869   5.542902
    16  C    3.050739   3.081455   3.925980   4.037966   4.930631
    17  C    3.561843   3.718936   4.855447   5.145755   5.738723
    18  C    4.405265   4.842043   6.032268   6.185437   6.910427
    19  N    4.795360   5.380076   6.438950   6.363639   7.371376
    20  O    2.903516   2.386963   2.875457   3.178119   3.891697
    21  F    3.890823   3.805723   4.987319   5.536374   5.726307
    22  F    3.899481   4.065702   4.279142   3.771318   5.328339
    23  F    5.337130   5.953472   6.627210   6.182435   7.607515
    24  F    5.330871   5.786746   7.084234   7.342640   7.878738
                    6          7          8          9         10
     6  H    0.000000
     7  H    2.407986   0.000000
     8  N    2.664544   1.018339   0.000000
     9  H    2.833362   1.674493   1.051366   0.000000
    10  C    4.070922   2.072752   1.473576   2.114840   0.000000
    11  H    4.672686   2.394752   2.086364   2.446500   1.087265
    12  H    4.317206   2.418556   2.101159   2.999726   1.087983
    13  H    4.586087   2.946031   2.085363   2.416886   1.084661
    14  C    5.982257   6.379067   5.524157   4.879063   6.035562
    15  C    4.630228   5.269124   4.513937   3.864522   5.296517
    16  C    3.937148   4.104287   3.352852   2.569967   4.149490
    17  C    4.900578   4.379966   3.539736   2.721483   3.889624
    18  C    6.184890   5.699047   4.796358   4.074119   4.904669
    19  N    6.661244   6.583949   5.667766   4.992734   5.897250
    20  O    2.631716   3.077701   2.592294   1.839555   3.792244
    21  F    4.931248   3.808175   3.079835   2.258266   3.213319
    22  F    4.380199   5.618564   5.009271   4.480498   6.003086
    23  F    6.895428   7.556412   6.716805   6.130974   7.249753
    24  F    7.241963   6.386971   5.495731   4.824984   5.290931
                   11         12         13         14         15
    11  H    0.000000
    12  H    1.785835   0.000000
    13  H    1.778118   1.788212   0.000000
    14  C    6.595926   6.815905   5.337738   0.000000
    15  C    5.898106   6.059868   4.804587   1.406878   0.000000
    16  C    4.629759   5.021120   3.772326   2.409202   1.396081
    17  C    4.156228   4.880671   3.331877   2.740030   2.402983
    18  C    5.171186   5.840033   4.125533   2.300113   2.739590
    19  N    6.315058   6.745028   5.079364   1.347205   2.426016
    20  O    4.260317   4.581451   3.798900   3.728621   2.454866
    21  F    3.162070   4.290767   2.849824   4.089087   3.648534
    22  F    6.696361   6.639032   5.653448   2.392054   1.350000
    23  F    7.876073   7.955203   6.528466   1.350000   2.397222
    24  F    5.361404   6.226062   4.454661   3.511043   4.089027
                   16         17         18         19         20
    16  C    0.000000
    17  C    1.395977   0.000000
    18  C    2.408938   1.406963   0.000000
    19  N    2.818686   2.426422   1.347401   0.000000
    20  O    1.430000   2.455058   3.728634   4.248686   0.000000
    21  F    2.391649   1.350000   2.392109   3.641799   2.823356
    22  F    2.391488   3.648358   4.088659   3.641460   2.822532
    23  F    3.652133   4.089473   3.511172   2.283861   4.850977
    24  F    3.651902   2.397253   1.350000   2.283897   4.851173
                   21         22         23         24
    21  F    0.000000
    22  F    4.780997   0.000000
    23  F    5.437811   2.780486   0.000000
    24  F    2.780463   5.437378   4.567331   0.000000
 Stoichiometry    C8H8F4N2O2
 Framework group  C1[X(C8H8F4N2O2)]
 Deg. of freedom    66
 Full point group                 C1      NOp   1
 Largest Abelian subgroup         C1      NOp   1
 Largest concise Abelian subgroup C1      NOp   1
                         Standard orientation:                         
 ---------------------------------------------------------------------
 Center     Atomic      Atomic             Coordinates (Angstroms)
 Number     Number       Type             X           Y           Z
 ---------------------------------------------------------------------
      1          8           0       -1.754323   -0.626099    1.467979
      2          6           0       -2.450802   -0.697405    0.503741
      3          6           0       -3.163933   -1.884859   -0.028239
      4          1           0       -2.645102   -2.785488    0.290621
      5          1           0       -4.176923   -1.888183    0.389804
      6          1           0       -3.233969   -1.854607   -1.113992
      7          1           0       -3.689788    0.477019   -0.721379
      8          7           0       -2.844358    0.605897   -0.168519
      9          1           0       -2.033356    0.696206   -0.831459
     10          6           0       -2.969597    1.761252    0.737515
     11          1           0       -3.149408    2.647555    0.133958
     12          1           0       -3.799346    1.593899    1.421047
     13          1           0       -2.037759    1.868207    1.282242
     14          6           0        2.485863   -0.777630    0.268414
     15          6           0        1.281224   -1.220522   -0.307779
     16          6           0        0.346555   -0.266665   -0.714709
     17          6           0        0.643682    1.085285   -0.533885
     18          6           0        1.875606    1.429480    0.052152
     19          7           0        2.788900    0.522382    0.450343
     20          8           0       -0.892949   -0.667485   -1.304516
     21          9           0       -0.225571    2.047328   -0.909879
     22          9           0        1.042546   -2.540460   -0.460413
     23          9           0        3.421716   -1.660223    0.677936
     24          9           0        2.210248    2.722522    0.248514
 ---------------------------------------------------------------------
 Rotational constants (GHZ):           0.7029066           0.4006343           0.2910667
 Leave Link  202 at Wed Jul 10 18:51:42 2024, MaxMem=  8053063680 cpu:               0.0 elap:               0.0
 (Enter /share/apps/g16.b01_avx2/g16/l301.exe)
 Standard basis: def2TZVP (5D, 7F)
 Ernie: Thresh=  0.10000D-02 Tol=  0.10000D-05 Strict=F.
 There are   624 symmetry adapted cartesian basis functions of A   symmetry.
 There are   544 symmetry adapted basis functions of A   symmetry.
   544 basis functions,   880 primitive gaussians,   624 cartesian basis functions
    61 alpha electrons       61 beta electrons
       nuclear repulsion energy      1192.5702410992 Hartrees.
 IExCor= 1009 DFT=T Ex+Corr=PBE1PBE ExCW=0 ScaHFX=  0.250000
 ScaDFX=  0.750000  0.750000  1.000000  1.000000 ScalE2=  1.000000  1.000000
 IRadAn=  99590 IRanWt=     -1 IRanGd=            0 ICorTp=0 IEmpDi=131
 NAtoms=   24 NActive=   24 NUniq=   24 SFac= 1.00D+00 NAtFMM=   60 NAOKFM=F Big=F
 Integral buffers will be    131072 words long.
 Raffenetti 2 integral format.
 Two-electron integral symmetry is turned on.
 R6Disp:  Grimme-D3 Dispersion energy=       -0.0151437684 Hartrees.
 Nuclear repulsion after empirical dispersion term =     1192.5550973308 Hartrees.
 Force inversion solution in PCM.
 ------------------------------------------------------------------------------
 Polarizable Continuum Model (PCM)
 =================================
 Model                : PCM.
 Atomic radii         : UFF (Universal Force Field).
 Polarization charges : Total charges.
 Charge compensation  : None.
 Solution method      : Matrix inversion.
 Cavity type          : Scaled VdW (van der Waals Surface) (Alpha=1.100).
 Cavity algorithm     : GePol (No added spheres)
                        Default sphere list used, NSphG=   24.
                        Lebedev-Laikov grids with approx.  5.0 points / Ang**2.
                        Smoothing algorithm: York/Karplus (Gamma=1.0000).
                        Polarization charges: spherical gaussians, with
                                              point-specific exponents (IZeta= 3).
                        Self-potential: point-specific (ISelfS= 7).
                        Self-field    : sphere-specific E.n sum rule (ISelfD= 2).
 1st derivatives      : Analytical E(r).r(x)/FMM algorithm (CHGder, D1EAlg=3).
                        Cavity 1st derivative terms included.
 2nd derivatives      : Analytical E(r).r(xy)/FMM algorithm (CHGder, D2EAlg=3).
                        Cavity 2nd derivative terms included.
 Solvent              : Water, Eps=  78.355300 Eps(inf)=   1.777849
 ------------------------------------------------------------------------------
 GePol: Number of generator spheres                  =      24
 GePol: Total number of spheres                      =      24
 GePol: Number of exposed spheres                    =      24 (100.00%)
 GePol: Number of points                             =    2112
 GePol: Average weight of points                     =       0.13
 GePol: Minimum weight of points                     =   0.39D-10
 GePol: Maximum weight of points                     =    0.20577
 GePol: Number of points with low weight             =     112
 GePol: Fraction of low-weight points (<1% of avg)   =       5.30%
 GePol: Cavity surface area                          =    269.340 Ang**2
 GePol: Cavity volume                                =    280.257 Ang**3
 Leave Link  301 at Wed Jul 10 18:51:42 2024, MaxMem=  8053063680 cpu:               0.4 elap:               0.0
 (Enter /share/apps/g16.b01_avx2/g16/l302.exe)
 NPDir=0 NMtPBC=     1 NCelOv=     1 NCel=       1 NClECP=     1 NCelD=      1
         NCelK=      1 NCelE2=     1 NClLst=     1 CellRange=     0.0.
 One-electron integrals computed using PRISM.
 One-electron integral symmetry used in STVInt
   1 Symmetry operations used in ECPInt.
 ECPInt:  NShTT=   21736 NPrTT=   68272 LenC2=   19596 LenP2D=   44476.
 LDataN:  DoStor=T MaxTD1= 6 Len=  172
 NBasis=   544 RedAO= T EigKep=  4.80D-05  NBF=   544
 NBsUse=   544 1.00D-06 EigRej= -1.00D+00 NBFU=   544
 Precomputing XC quadrature grid using
 IXCGrd= 4 IRadAn=       99590 IRanWt=          -1 IRanGd=           0 AccXCQ= 0.00D+00.
 Generated NRdTot=       0 NPtTot=           0 NUsed=           0 NTot=          32
 NSgBfM=   616   616   616   616   616 MxSgAt=    24 MxSgA2=    24.
 Leave Link  302 at Wed Jul 10 18:51:42 2024, MaxMem=  8053063680 cpu:               3.8 elap:               0.2
 (Enter /share/apps/g16.b01_avx2/g16/l303.exe)
 DipDrv:  MaxL=1.
 Leave Link  303 at Wed Jul 10 18:51:43 2024, MaxMem=  8053063680 cpu:               0.6 elap:               0.0
 (Enter /share/apps/g16.b01_avx2/g16/l401.exe)
 ExpMin= 9.52D-02 ExpMax= 3.55D+04 ExpMxC= 1.21D+03 IAcc=4 IRadAn=    199590 AccDes= 0.00D+00
 Harris functional with IExCor= 1009 and IRadAn=  199590 diagonalized for initial guess.
 HarFok:  IExCor= 1009 AccDes= 0.00D+00 IRadAn=    199590 IDoV= 1 UseB2=F ITyADJ=14
 ICtDFT=  3500011 ScaDFX=  1.000000  1.000000  1.000000  1.000000
 FoFCou: FMM=F IPFlag=           0 FMFlag=      100000 FMFlg1=           0
         NFxFlg=           0 DoJE=T BraDBF=F KetDBF=T FulRan=T
         wScrn=  0.000000 ICntrl=       500 IOpCl=  0 I1Cent=   200000004 NGrid=           0
         NMat0=    1 NMatS0=      1 NMatT0=    0 NMatD0=    1 NMtDS0=    0 NMtDT0=    0
 Petite list used in FoFCou.
 Harris En= -968.433968900359    
 JPrj=0 DoOrth=F DoCkMO=F.
 Leave Link  401 at Wed Jul 10 18:51:45 2024, MaxMem=  8053063680 cpu:              33.1 elap:               2.1
 (Enter /share/apps/g16.b01_avx2/g16/l502.exe)
 Integral symmetry usage will be decided dynamically.
 Closed shell SCF:
 Using DIIS extrapolation, IDIIS=  1040.
 NGot=  8053063680 LenX=  8052269538 LenY=  8051879538
 Requested convergence on RMS density matrix=1.00D-08 within 128 cycles.
 Requested convergence on MAX density matrix=1.00D-06.
 Requested convergence on             energy=1.00D-06.
 No special actions if energy rises.
 Fock matrices will be formed incrementally for  20 cycles.

 Cycle   1  Pass 1  IDiag  1:
 FoFJK:  IHMeth= 1 ICntrl=       0 DoSepK=F KAlg= 0 I1Cent=           0 FoldK=F
 IRaf= 850000000 NMat=       1 IRICut=       1 DoRegI=T DoRafI=F ISym2E= 0 IDoP0=0 IntGTp=1.
 FoFCou: FMM=F IPFlag=           0 FMFlag=      100000 FMFlg1=           0
         NFxFlg=           0 DoJE=F BraDBF=F KetDBF=F FulRan=T
         wScrn=  0.000000 ICntrl=         0 IOpCl=  0 I1Cent=           0 NGrid=           0
         NMat0=    1 NMatS0=      1 NMatT0=    0 NMatD0=    1 NMtDS0=    0 NMtDT0=    0
 Symmetry not used in FoFCou.
 Inv3:  Mode=1 IEnd=    13381632.
 Iteration    1 A*A^-1 deviation from unit magnitude is 3.33D-15 for    887.
 Iteration    1 A*A^-1 deviation from orthogonality  is 2.00D-15 for   1939   1448.
 Iteration    1 A^-1*A deviation from unit magnitude is 3.11D-15 for    887.
 Iteration    1 A^-1*A deviation from orthogonality  is 3.01D-14 for   1839   1818.
 E= -968.066916110339    
 DIIS: error= 2.03D-02 at cycle   1 NSaved=   1.
 NSaved= 1 IEnMin= 1 EnMin= -968.066916110339     IErMin= 1 ErrMin= 2.03D-02
 ErrMax= 2.03D-02  0.00D+00 EMaxC= 1.00D-01 BMatC= 3.87D-01 BMatP= 3.87D-01
 IDIUse=3 WtCom= 7.97D-01 WtEn= 2.03D-01
 Coeff-Com:  0.100D+01
 Coeff-En:   0.100D+01
 Coeff:      0.100D+01
 Gap=     0.248 Goal=   None    Shift=    0.000
 GapD=    0.248 DampG=1.000 DampE=0.500 DampFc=0.5000 IDamp=-1.
 Damping current iteration by 5.00D-01
 RMSDP=3.44D-03 MaxDP=3.86D-01              OVMax= 3.08D-01

 Cycle   2  Pass 1  IDiag  1:
 RMSU=  1.72D-03    CP:  1.00D+00
 E= -968.139998742996     Delta-E=       -0.073082632657 Rises=F Damp=T
 DIIS: error= 8.67D-03 at cycle   2 NSaved=   2.
 NSaved= 2 IEnMin= 2 EnMin= -968.139998742996     IErMin= 2 ErrMin= 8.67D-03
 ErrMax= 8.67D-03  0.00D+00 EMaxC= 1.00D-01 BMatC= 6.15D-02 BMatP= 3.87D-01
 IDIUse=3 WtCom= 9.13D-01 WtEn= 8.67D-02
 Coeff-Com:  0.182D+00 0.818D+00
 Coeff-En:   0.343D+00 0.657D+00
 Coeff:      0.196D+00 0.804D+00
 Gap=     0.267 Goal=   None    Shift=    0.000
 RMSDP=1.27D-03 MaxDP=1.59D-01 DE=-7.31D-02 OVMax= 2.10D-01

 Cycle   3  Pass 1  IDiag  1:
 RMSU=  7.06D-04    CP:  9.89D-01  3.91D-01
 E= -968.299969487439     Delta-E=       -0.159970744443 Rises=F Damp=F
 DIIS: error= 1.05D-02 at cycle   3 NSaved=   3.
 NSaved= 3 IEnMin= 3 EnMin= -968.299969487439     IErMin= 2 ErrMin= 8.67D-03
 ErrMax= 1.05D-02  0.00D+00 EMaxC= 1.00D-01 BMatC= 5.08D-02 BMatP= 6.15D-02
 IDIUse=3 WtCom= 8.95D-01 WtEn= 1.05D-01
 Coeff-Com:  0.420D-02 0.472D+00 0.523D+00
 Coeff-En:   0.000D+00 0.000D+00 0.100D+01
 Coeff:      0.376D-02 0.423D+00 0.573D+00
 Gap=     0.226 Goal=   None    Shift=    0.000
 RMSDP=5.26D-04 MaxDP=2.99D-02 DE=-1.60D-01 OVMax= 8.72D-02

 Cycle   4  Pass 1  IDiag  1:
 RMSU=  3.65D-04    CP:  9.88D-01  5.81D-01  7.29D-01
 E= -968.333151772325     Delta-E=       -0.033182284886 Rises=F Damp=F
 DIIS: error= 4.03D-03 at cycle   4 NSaved=   4.
 NSaved= 4 IEnMin= 4 EnMin= -968.333151772325     IErMin= 4 ErrMin= 4.03D-03
 ErrMax= 4.03D-03  0.00D+00 EMaxC= 1.00D-01 BMatC= 8.92D-03 BMatP= 5.08D-02
 IDIUse=3 WtCom= 9.60D-01 WtEn= 4.03D-02
 Coeff-Com: -0.172D-01 0.117D+00 0.327D+00 0.574D+00
 Coeff-En:   0.000D+00 0.000D+00 0.158D+00 0.842D+00
 Coeff:     -0.165D-01 0.112D+00 0.320D+00 0.584D+00
 Gap=     0.211 Goal=   None    Shift=    0.000
 RMSDP=2.10D-04 MaxDP=1.52D-02 DE=-3.32D-02 OVMax= 3.14D-02

 Cycle   5  Pass 1  IDiag  1:
 RMSU=  9.41D-05    CP:  9.87D-01  5.03D-01  8.53D-01  7.35D-01
 E= -968.339143333008     Delta-E=       -0.005991560684 Rises=F Damp=F
 DIIS: error= 1.34D-03 at cycle   5 NSaved=   5.
 NSaved= 5 IEnMin= 5 EnMin= -968.339143333008     IErMin= 5 ErrMin= 1.34D-03
 ErrMax= 1.34D-03  0.00D+00 EMaxC= 1.00D-01 BMatC= 1.25D-03 BMatP= 8.92D-03
 IDIUse=3 WtCom= 9.87D-01 WtEn= 1.34D-02
 Coeff-Com: -0.107D-01 0.303D-01 0.153D+00 0.377D+00 0.450D+00
 Coeff-En:   0.000D+00 0.000D+00 0.000D+00 0.765D-01 0.924D+00
 Coeff:     -0.105D-01 0.299D-01 0.151D+00 0.373D+00 0.457D+00
 Gap=     0.208 Goal=   None    Shift=    0.000
 RMSDP=6.59D-05 MaxDP=5.33D-03 DE=-5.99D-03 OVMax= 8.36D-03

 Cycle   6  Pass 1  IDiag  1:
 RMSU=  2.56D-05    CP:  9.88D-01  5.25D-01  8.32D-01  7.70D-01  5.52D-01
 E= -968.340019383215     Delta-E=       -0.000876050206 Rises=F Damp=F
 DIIS: error= 3.32D-04 at cycle   6 NSaved=   6.
 NSaved= 6 IEnMin= 6 EnMin= -968.340019383215     IErMin= 6 ErrMin= 3.32D-04
 ErrMax= 3.32D-04  0.00D+00 EMaxC= 1.00D-01 BMatC= 5.68D-05 BMatP= 1.25D-03
 IDIUse=3 WtCom= 9.97D-01 WtEn= 3.32D-03
 Coeff-Com: -0.411D-02 0.594D-02 0.482D-01 0.141D+00 0.239D+00 0.569D+00
 Coeff-En:   0.000D+00 0.000D+00 0.000D+00 0.000D+00 0.000D+00 0.100D+01
 Coeff:     -0.410D-02 0.592D-02 0.480D-01 0.141D+00 0.239D+00 0.571D+00
 Gap=     0.208 Goal=   None    Shift=    0.000
 RMSDP=1.24D-05 MaxDP=8.14D-04 DE=-8.76D-04 OVMax= 1.58D-03

 Cycle   7  Pass 1  IDiag  1:
 RMSU=  9.05D-06    CP:  9.88D-01  5.23D-01  8.36D-01  7.62D-01  5.77D-01
                    CP:  7.57D-01
 E= -968.340058291308     Delta-E=       -0.000038908094 Rises=F Damp=F
 DIIS: error= 7.41D-05 at cycle   7 NSaved=   7.
 NSaved= 7 IEnMin= 7 EnMin= -968.340058291308     IErMin= 7 ErrMin= 7.41D-05
 ErrMax= 7.41D-05  0.00D+00 EMaxC= 1.00D-01 BMatC= 6.83D-06 BMatP= 5.68D-05
 IDIUse=1 WtCom= 1.00D+00 WtEn= 0.00D+00
 Coeff-Com: -0.116D-02 0.298D-03 0.102D-01 0.383D-01 0.801D-01 0.314D+00
 Coeff-Com:  0.558D+00
 Coeff:     -0.116D-02 0.298D-03 0.102D-01 0.383D-01 0.801D-01 0.314D+00
 Coeff:      0.558D+00
 Gap=     0.208 Goal=   None    Shift=    0.000
 RMSDP=4.37D-06 MaxDP=1.84D-04 DE=-3.89D-05 OVMax= 6.01D-04

 Cycle   8  Pass 1  IDiag  1:
 RMSU=  2.85D-06    CP:  9.88D-01  5.24D-01  8.35D-01  7.65D-01  5.79D-01
                    CP:  8.21D-01  7.69D-01
 E= -968.340063484462     Delta-E=       -0.000005193154 Rises=F Damp=F
 DIIS: error= 2.12D-05 at cycle   8 NSaved=   8.
 NSaved= 8 IEnMin= 8 EnMin= -968.340063484462     IErMin= 8 ErrMin= 2.12D-05
 ErrMax= 2.12D-05  0.00D+00 EMaxC= 1.00D-01 BMatC= 3.79D-07 BMatP= 6.83D-06
 IDIUse=1 WtCom= 1.00D+00 WtEn= 0.00D+00
 Coeff-Com: -0.508D-04-0.401D-03-0.945D-03 0.571D-03 0.515D-02 0.668D-01
 Coeff-Com:  0.235D+00 0.693D+00
 Coeff:     -0.508D-04-0.401D-03-0.945D-03 0.571D-03 0.515D-02 0.668D-01
 Coeff:      0.235D+00 0.693D+00
 Gap=     0.208 Goal=   None    Shift=    0.000
 RMSDP=1.33D-06 MaxDP=6.93D-05 DE=-5.19D-06 OVMax= 1.49D-04

 Cycle   9  Pass 1  IDiag  1:
 RMSU=  9.25D-07    CP:  9.88D-01  5.24D-01  8.35D-01  7.66D-01  5.78D-01
                    CP:  8.33D-01  8.29D-01  8.36D-01
 E= -968.340063779920     Delta-E=       -0.000000295458 Rises=F Damp=F
 DIIS: error= 7.77D-06 at cycle   9 NSaved=   9.
 NSaved= 9 IEnMin= 9 EnMin= -968.340063779920     IErMin= 9 ErrMin= 7.77D-06
 ErrMax= 7.77D-06  0.00D+00 EMaxC= 1.00D-01 BMatC= 4.86D-08 BMatP= 3.79D-07
 IDIUse=1 WtCom= 1.00D+00 WtEn= 0.00D+00
 Coeff-Com:  0.669D-04-0.224D-03-0.124D-02-0.258D-02-0.373D-02 0.728D-02
 Coeff-Com:  0.666D-01 0.337D+00 0.597D+00
 Coeff:      0.669D-04-0.224D-03-0.124D-02-0.258D-02-0.373D-02 0.728D-02
 Coeff:      0.666D-01 0.337D+00 0.597D+00
 Gap=     0.208 Goal=   None    Shift=    0.000
 RMSDP=4.51D-07 MaxDP=2.41D-05 DE=-2.95D-07 OVMax= 6.48D-05

 Cycle  10  Pass 1  IDiag  1:
 RMSU=  2.95D-07    CP:  9.88D-01  5.24D-01  8.35D-01  7.66D-01  5.79D-01
                    CP:  8.35D-01  8.34D-01  8.97D-01  7.47D-01
 E= -968.340063814082     Delta-E=       -0.000000034162 Rises=F Damp=F
 DIIS: error= 2.90D-06 at cycle  10 NSaved=  10.
 NSaved=10 IEnMin=10 EnMin= -968.340063814082     IErMin=10 ErrMin= 2.90D-06
 ErrMax= 2.90D-06  0.00D+00 EMaxC= 1.00D-01 BMatC= 9.01D-09 BMatP= 4.86D-08
 IDIUse=1 WtCom= 1.00D+00 WtEn= 0.00D+00
 Coeff-Com:  0.406D-04-0.878D-04-0.648D-03-0.157D-02-0.282D-02-0.195D-02
 Coeff-Com:  0.179D-01 0.139D+00 0.350D+00 0.499D+00
 Coeff:      0.406D-04-0.878D-04-0.648D-03-0.157D-02-0.282D-02-0.195D-02
 Coeff:      0.179D-01 0.139D+00 0.350D+00 0.499D+00
 Gap=     0.208 Goal=   None    Shift=    0.000
 RMSDP=2.09D-07 MaxDP=1.68D-05 DE=-3.42D-08 OVMax= 2.67D-05

 Cycle  11  Pass 1  IDiag  1:
 RMSU=  1.08D-07    CP:  9.88D-01  5.24D-01  8.35D-01  7.66D-01  5.79D-01
                    CP:  8.37D-01  8.39D-01  9.04D-01  8.00D-01  6.13D-01
 E= -968.340063821200     Delta-E=       -0.000000007118 Rises=F Damp=F
 DIIS: error= 6.29D-07 at cycle  11 NSaved=  11.
 NSaved=11 IEnMin=11 EnMin= -968.340063821200     IErMin=11 ErrMin= 6.29D-07
 ErrMax= 6.29D-07  0.00D+00 EMaxC= 1.00D-01 BMatC= 3.69D-10 BMatP= 9.01D-09
 IDIUse=1 WtCom= 1.00D+00 WtEn= 0.00D+00
 Coeff-Com:  0.495D-05-0.329D-05-0.110D-03-0.283D-03-0.698D-03-0.161D-02
 Coeff-Com: -0.224D-02 0.891D-02 0.459D-01 0.174D+00 0.777D+00
 Coeff:      0.495D-05-0.329D-05-0.110D-03-0.283D-03-0.698D-03-0.161D-02
 Coeff:     -0.224D-02 0.891D-02 0.459D-01 0.174D+00 0.777D+00
 Gap=     0.208 Goal=   None    Shift=    0.000
 RMSDP=4.93D-08 MaxDP=2.24D-06 DE=-7.12D-09 OVMax= 8.51D-06

 Cycle  12  Pass 1  IDiag  1:
 RMSU=  3.16D-08    CP:  9.88D-01  5.24D-01  8.35D-01  7.66D-01  5.79D-01
                    CP:  8.37D-01  8.40D-01  9.10D-01  8.11D-01  6.93D-01
                    CP:  9.03D-01
 E= -968.340063821472     Delta-E=       -0.000000000272 Rises=F Damp=F
 DIIS: error= 2.55D-07 at cycle  12 NSaved=  12.
 NSaved=12 IEnMin=12 EnMin= -968.340063821472     IErMin=12 ErrMin= 2.55D-07
 ErrMax= 2.55D-07  0.00D+00 EMaxC= 1.00D-01 BMatC= 9.32D-11 BMatP= 3.69D-10
 IDIUse=1 WtCom= 1.00D+00 WtEn= 0.00D+00
 Coeff-Com: -0.124D-05 0.637D-05-0.314D-05-0.235D-05-0.126D-03-0.589D-03
 Coeff-Com: -0.284D-02-0.755D-02-0.535D-02 0.573D-01 0.452D+00 0.507D+00
 Coeff:     -0.124D-05 0.637D-05-0.314D-05-0.235D-05-0.126D-03-0.589D-03
 Coeff:     -0.284D-02-0.755D-02-0.535D-02 0.573D-01 0.452D+00 0.507D+00
 Gap=     0.208 Goal=   None    Shift=    0.000
 RMSDP=2.17D-08 MaxDP=1.05D-06 DE=-2.72D-10 OVMax= 2.98D-06

 Cycle  13  Pass 1  IDiag  1:
 RMSU=  1.11D-08    CP:  9.88D-01  5.24D-01  8.35D-01  7.66D-01  5.79D-01
                    CP:  8.38D-01  8.40D-01  9.10D-01  8.11D-01  6.97D-01
                    CP:  9.68D-01  6.63D-01
 E= -968.340063821553     Delta-E=       -0.000000000081 Rises=F Damp=F
 DIIS: error= 5.92D-08 at cycle  13 NSaved=  13.
 NSaved=13 IEnMin=13 EnMin= -968.340063821553     IErMin=13 ErrMin= 5.92D-08
 ErrMax= 5.92D-08  0.00D+00 EMaxC= 1.00D-01 BMatC= 4.02D-12 BMatP= 9.32D-11
 IDIUse=1 WtCom= 1.00D+00 WtEn= 0.00D+00
 Coeff-Com: -0.107D-05 0.336D-05 0.714D-05 0.195D-04-0.658D-05-0.121D-03
 Coeff-Com: -0.106D-02-0.393D-02-0.719D-02 0.738D-02 0.120D+00 0.218D+00
 Coeff-Com:  0.668D+00
 Coeff:     -0.107D-05 0.336D-05 0.714D-05 0.195D-04-0.658D-05-0.121D-03
 Coeff:     -0.106D-02-0.393D-02-0.719D-02 0.738D-02 0.120D+00 0.218D+00
 Coeff:      0.668D+00
 Gap=     0.208 Goal=   None    Shift=    0.000
 RMSDP=5.06D-09 MaxDP=4.31D-07 DE=-8.14D-11 OVMax= 5.68D-07

 Error on total polarization charges =  0.00983
 SCF Done:  E(RPBE1PBE) =  -968.340063822     A.U. after   13 cycles
            NFock= 13  Conv=0.51D-08     -V/T= 2.0047
 KE= 9.638298094918D+02 PE=-4.667987180707D+03 EE= 1.543262210062D+03
 Leave Link  502 at Wed Jul 10 18:52:54 2024, MaxMem=  8053063680 cpu:            1109.2 elap:              69.6
 (Enter /share/apps/g16.b01_avx2/g16/l801.exe)
 DoSCS=F DFT=T ScalE2(SS,OS)=  1.000000  1.000000
 Range of M.O.s used for correlation:     1   544
 NBasis=   544 NAE=    61 NBE=    61 NFC=     0 NFV=     0
 NROrb=    544 NOA=    61 NOB=    61 NVA=   483 NVB=   483

 **** Warning!!: The largest alpha MO coefficient is  0.31974107D+02

 Leave Link  801 at Wed Jul 10 18:52:54 2024, MaxMem=  8053063680 cpu:               0.3 elap:               0.0
 (Enter /share/apps/g16.b01_avx2/g16/l1101.exe)
 Using compressed storage, NAtomX=    24.
 Will process     25 centers per pass.
   1 Symmetry operations used in ECPInt.
 ECPInt:  NShTT=   21736 NPrTT=   68272 LenC2=   19596 LenP2D=   44476.
 LDataN:  DoStor=T MaxTD1= 7 Len=  274
 R6Disp: Adding Grimme-D3 dispersion energy 1st derivatives to the gradient.
 Leave Link 1101 at Wed Jul 10 18:52:55 2024, MaxMem=  8053063680 cpu:              10.1 elap:               0.6
 (Enter /share/apps/g16.b01_avx2/g16/l1102.exe)
 Symmetrizing basis deriv contribution to polar:
 IMax=3 JMax=2 DiffMx= 0.00D+00
 Leave Link 1102 at Wed Jul 10 18:52:55 2024, MaxMem=  8053063680 cpu:               0.5 elap:               0.0
 (Enter /share/apps/g16.b01_avx2/g16/l1110.exe)
 Forming Gx(P) for the SCF density, NAtomX=    24.
 Integral derivatives from FoFJK, PRISM(SPDF).
 Do as many integral derivatives as possible in FoFJK.
 G2DrvN: MDV=    8053061624.
 G2DrvN: will do    25 centers at a time, making    1 passes.
 Calling FoFCou, ICntrl=  3107 FMM=F I1Cent=   0 AccDes= 0.00D+00.
 FoFJK:  IHMeth= 1 ICntrl=    3107 DoSepK=F KAlg= 0 I1Cent=           0 FoldK=F
 IRaf=         0 NMat=       1 IRICut=       1 DoRegI=T DoRafI=F ISym2E= 0 IDoP0=0 IntGTp=1.
 FoFCou: FMM=F IPFlag=           0 FMFlag=      100000 FMFlg1=           0
         NFxFlg=           0 DoJE=F BraDBF=F KetDBF=F FulRan=T
         wScrn=  0.000000 ICntrl=      3107 IOpCl=  0 I1Cent=           0 NGrid=           0
         NMat0=    1 NMatS0=      1 NMatT0=    0 NMatD0=    1 NMtDS0=    0 NMtDT0=    0
 Symmetry not used in FoFCou.
 NEqPCM:  Using equilibrium solvation (IEInf=0, Eps=  78.3553, EpsInf=   1.7778)
 G2PCM: DoFxE=T DoFxN=T DoGrad=T DoDP/DQ/DG/TGxP=FFFF NFrqRd=   0 IEInf=0 SqF1=F DoCFld=F IF1Alg=4.
 GePol: Maximum number of non-zero 1st derivatives   =     211
 End of G2Drv F.D. properties file   721 does not exist.
 End of G2Drv F.D. properties file   722 does not exist.
 End of G2Drv F.D. properties file   788 does not exist.
 Leave Link 1110 at Wed Jul 10 18:54:47 2024, MaxMem=  8053063680 cpu:            1787.0 elap:             111.7
 (Enter /share/apps/g16.b01_avx2/g16/l1002.exe)
 Minotr:  Closed shell wavefunction.
          IDoAtm=111111111111111111111111
 NEqPCM:  Using equilibrium solvation (IEInf=0, Eps=  78.3553, EpsInf=   1.7778)
          Direct CPHF calculation.
          Differentiating once with respect to nuclear coordinates.
          Requested convergence is 1.0D-08 RMS, and 1.0D-07 maximum.
          Secondary convergence is 1.0D-12 RMS, and 1.0D-12 maximum.
          NewPWx=T KeepS1=F KeepF1=F KeepIn=T MapXYZ=F SortEE=F KeepMc=T.
        16729 words used for storage of precomputed grid.
 Two-electron integrals replicated using symmetry.
          MDV=    8053063680 using IRadAn=   99302.
          Solving linear equations simultaneously, MaxMat=     384.
 FoF2E skips out because all densities are zero.
 CalDSu exits because no D1Ps are significant.
 FoFJK:  IHMeth= 1 ICntrl=       0 DoSepK=F KAlg= 0 I1Cent=           0 FoldK=F
 IRaf= 820000000 NMat=      72 IRICut=     180 DoRegI=T DoRafI=T ISym2E= 2 IDoP0=3 IntGTp=3.
          There are    75 degrees of freedom in the 1st order CPHF.  IDoFFX=6 NUNeed=     0.
     69 vectors produced by pass  0 Test12= 3.93D-14 1.33D-09 XBig12= 1.81D-01 1.26D-01.
 AX will form    69 AO Fock derivatives at one time.
     69 vectors produced by pass  1 Test12= 3.93D-14 1.33D-09 XBig12= 7.26D-02 6.73D-02.
     69 vectors produced by pass  2 Test12= 3.93D-14 1.33D-09 XBig12= 8.51D-04 5.25D-03.
     69 vectors produced by pass  3 Test12= 3.93D-14 1.33D-09 XBig12= 8.95D-06 4.26D-04.
     69 vectors produced by pass  4 Test12= 3.93D-14 1.33D-09 XBig12= 4.93D-08 3.31D-05.
     69 vectors produced by pass  5 Test12= 3.93D-14 1.33D-09 XBig12= 1.20D-10 9.63D-07.
     38 vectors produced by pass  6 Test12= 3.93D-14 1.33D-09 XBig12= 2.77D-13 5.04D-08.
      3 vectors produced by pass  7 Test12= 3.93D-14 1.33D-09 XBig12= 8.58D-16 2.72D-09.
      1 vectors produced by pass  8 Test12= 3.93D-14 1.33D-09 XBig12= 7.52D-16 1.75D-09.
 InvSVY:  IOpt=1 It=  1 EMax= 5.55D-16
 Solved reduced A of dimension   456 with    75 vectors.
 End of Minotr F.D. properties file   721 does not exist.
 End of Minotr F.D. properties file   722 does not exist.
 End of Minotr F.D. properties file   788 does not exist.
 Leave Link 1002 at Wed Jul 10 19:00:31 2024, MaxMem=  8053063680 cpu:            5502.1 elap:             343.9
 (Enter /share/apps/g16.b01_avx2/g16/l601.exe)
 Copying SCF densities to generalized density rwf, IOpCl= 0 IROHF=0.

 **********************************************************************

            Population analysis using the SCF Density.

 **********************************************************************

 Orbital symmetries:
       Occupied  (A) (A) (A) (A) (A) (A) (A) (A) (A) (A) (A) (A)
                 (A) (A) (A) (A) (A) (A) (A) (A) (A) (A) (A) (A)
                 (A) (A) (A) (A) (A) (A) (A) (A) (A) (A) (A) (A)
                 (A) (A) (A) (A) (A) (A) (A) (A) (A) (A) (A) (A)
                 (A) (A) (A) (A) (A) (A) (A) (A) (A) (A) (A) (A)
                 (A)
       Virtual   (A) (A) (A) (A) (A) (A) (A) (A) (A) (A) (A) (A)
                 (A) (A) (A) (A) (A) (A) (A) (A) (A) (A) (A) (A)
                 (A) (A) (A) (A) (A) (A) (A) (A) (A) (A) (A) (A)
                 (A) (A) (A) (A) (A) (A) (A) (A) (A) (A) (A) (A)
                 (A) (A) (A) (A) (A) (A) (A) (A) (A) (A) (A) (A)
                 (A) (A) (A) (A) (A) (A) (A) (A) (A) (A) (A) (A)
                 (A) (A) (A) (A) (A) (A) (A) (A) (A) (A) (A) (A)
                 (A) (A) (A) (A) (A) (A) (A) (A) (A) (A) (A) (A)
                 (A) (A) (A) (A) (A) (A) (A) (A) (A) (A) (A) (A)
                 (A) (A) (A) (A) (A) (A) (A) (A) (A) (A) (A) (A)
                 (A) (A) (A) (A) (A) (A) (A) (A) (A) (A) (A) (A)
                 (A) (A) (A) (A) (A) (A) (A) (A) (A) (A) (A) (A)
                 (A) (A) (A) (A) (A) (A) (A) (A) (A) (A) (A) (A)
                 (A) (A) (A) (A) (A) (A) (A) (A) (A) (A) (A) (A)
                 (A) (A) (A) (A) (A) (A) (A) (A) (A) (A) (A) (A)
                 (A) (A) (A) (A) (A) (A) (A) (A) (A) (A) (A) (A)
                 (A) (A) (A) (A) (A) (A) (A) (A) (A) (A) (A) (A)
                 (A) (A) (A) (A) (A) (A) (A) (A) (A) (A) (A) (A)
                 (A) (A) (A) (A) (A) (A) (A) (A) (A) (A) (A) (A)
                 (A) (A) (A) (A) (A) (A) (A) (A) (A) (A) (A) (A)
                 (A) (A) (A) (A) (A) (A) (A) (A) (A) (A) (A) (A)
                 (A) (A) (A) (A) (A) (A) (A) (A) (A) (A) (A) (A)
                 (A) (A) (A) (A) (A) (A) (A) (A) (A) (A) (A) (A)
                 (A) (A) (A) (A) (A) (A) (A) (A) (A) (A) (A) (A)
                 (A) (A) (A) (A) (A) (A) (A) (A) (A) (A) (A) (A)
                 (A) (A) (A) (A) (A) (A) (A) (A) (A) (A) (A) (A)
                 (A) (A) (A) (A) (A) (A) (A) (A) (A) (A) (A) (A)
                 (A) (A) (A) (A) (A) (A) (A) (A) (A) (A) (A) (A)
                 (A) (A) (A) (A) (A) (A) (A) (A) (A) (A) (A) (A)
                 (A) (A) (A) (A) (A) (A) (A) (A) (A) (A) (A) (A)
                 (A) (A) (A) (A) (A) (A) (A) (A) (A) (A) (A) (A)
                 (A) (A) (A) (A) (A) (A) (A) (A) (A) (A) (A) (A)
                 (A) (A) (A) (A) (A) (A) (A) (A) (A) (A) (A) (A)
                 (A) (A) (A) (A) (A) (A) (A) (A) (A) (A) (A) (A)
                 (A) (A) (A) (A) (A) (A) (A) (A) (A) (A) (A) (A)
                 (A) (A) (A) (A) (A) (A) (A) (A) (A) (A) (A) (A)
                 (A) (A) (A) (A) (A) (A) (A) (A) (A) (A) (A) (A)
                 (A) (A) (A) (A) (A) (A) (A) (A) (A) (A) (A) (A)
                 (A) (A) (A) (A) (A) (A) (A) (A) (A) (A) (A) (A)
                 (A) (A) (A) (A) (A) (A) (A) (A) (A) (A) (A) (A)
                 (A) (A) (A)
 The electronic state is 1-A.
 Alpha  occ. eigenvalues --  -24.81138 -24.80676 -24.80614 -24.80081 -19.23212
 Alpha  occ. eigenvalues --  -19.17068 -14.49913 -14.41529 -10.38089 -10.36806
 Alpha  occ. eigenvalues --  -10.36702 -10.33122 -10.32942 -10.31097 -10.27790
 Alpha  occ. eigenvalues --  -10.24238  -1.28972  -1.28506  -1.27795  -1.27075
 Alpha  occ. eigenvalues --   -1.13298  -1.02472  -0.99965  -0.96939  -0.83181
 Alpha  occ. eigenvalues --   -0.80582  -0.80030  -0.74440  -0.69025  -0.67841
 Alpha  occ. eigenvalues --   -0.63719  -0.61273  -0.60384  -0.59840  -0.59457
 Alpha  occ. eigenvalues --   -0.56237  -0.54650  -0.53647  -0.53400  -0.52818
 Alpha  occ. eigenvalues --   -0.51476  -0.49691  -0.48864  -0.48055  -0.47258
 Alpha  occ. eigenvalues --   -0.46817  -0.46480  -0.44764  -0.44416  -0.43493
 Alpha  occ. eigenvalues --   -0.42064  -0.41876  -0.41164  -0.40108  -0.39572
 Alpha  occ. eigenvalues --   -0.35044  -0.33634  -0.32443  -0.27692  -0.26806
 Alpha  occ. eigenvalues --   -0.25093
 Alpha virt. eigenvalues --   -0.04274  -0.01355  -0.01237   0.01485   0.04216
 Alpha virt. eigenvalues --    0.06055   0.07942   0.08588   0.09598   0.10402
 Alpha virt. eigenvalues --    0.11135   0.11779   0.12265   0.13225   0.14207
 Alpha virt. eigenvalues --    0.15062   0.15662   0.15805   0.16981   0.17940
 Alpha virt. eigenvalues --    0.19120   0.20421   0.20795   0.21047   0.22219
 Alpha virt. eigenvalues --    0.22657   0.23742   0.24413   0.24709   0.25650
 Alpha virt. eigenvalues --    0.26369   0.27370   0.27617   0.28740   0.29520
 Alpha virt. eigenvalues --    0.30113   0.31196   0.32339   0.33230   0.33697
 Alpha virt. eigenvalues --    0.34391   0.35821   0.36412   0.37607   0.37869
 Alpha virt. eigenvalues --    0.39421   0.39525   0.39836   0.40428   0.41421
 Alpha virt. eigenvalues --    0.42488   0.42892   0.43182   0.43327   0.44029
 Alpha virt. eigenvalues --    0.44500   0.45503   0.46446   0.47285   0.48072
 Alpha virt. eigenvalues --    0.48586   0.49275   0.50615   0.51070   0.51805
 Alpha virt. eigenvalues --    0.52274   0.54158   0.55361   0.56310   0.57502
 Alpha virt. eigenvalues --    0.58663   0.58949   0.60387   0.61531   0.61792
 Alpha virt. eigenvalues --    0.62623   0.63068   0.63618   0.65370   0.66683
 Alpha virt. eigenvalues --    0.67256   0.67922   0.68846   0.70111   0.70703
 Alpha virt. eigenvalues --    0.71326   0.73373   0.74265   0.74813   0.77524
 Alpha virt. eigenvalues --    0.78204   0.79806   0.81257   0.82051   0.82939
 Alpha virt. eigenvalues --    0.84295   0.84854   0.86180   0.87048   0.87544
 Alpha virt. eigenvalues --    0.88123   0.89000   0.89920   0.90641   0.91858
 Alpha virt. eigenvalues --    0.92929   0.93273   0.94790   0.95793   0.97320
 Alpha virt. eigenvalues --    0.98301   0.99676   1.00339   1.01812   1.02393
 Alpha virt. eigenvalues --    1.03804   1.05607   1.08166   1.10194   1.10831
 Alpha virt. eigenvalues --    1.12070   1.12955   1.14768   1.15426   1.15868
 Alpha virt. eigenvalues --    1.20409   1.21171   1.22554   1.23537   1.24551
 Alpha virt. eigenvalues --    1.26104   1.29427   1.31181   1.33993   1.34696
 Alpha virt. eigenvalues --    1.34906   1.36618   1.40066   1.41251   1.41398
 Alpha virt. eigenvalues --    1.43279   1.43923   1.45333   1.45573   1.47145
 Alpha virt. eigenvalues --    1.48220   1.49418   1.50954   1.51479   1.52533
 Alpha virt. eigenvalues --    1.53937   1.54641   1.55656   1.57164   1.57762
 Alpha virt. eigenvalues --    1.59277   1.59644   1.61251   1.61747   1.62025
 Alpha virt. eigenvalues --    1.64081   1.67062   1.67884   1.70551   1.72157
 Alpha virt. eigenvalues --    1.72673   1.74477   1.75960   1.77207   1.79378
 Alpha virt. eigenvalues --    1.79726   1.80215   1.84141   1.85189   1.86359
 Alpha virt. eigenvalues --    1.87834   1.89041   1.90026   1.90396   1.90649
 Alpha virt. eigenvalues --    1.92190   1.93543   1.94990   1.97183   1.99136
 Alpha virt. eigenvalues --    2.00346   2.02255   2.03415   2.04215   2.05790
 Alpha virt. eigenvalues --    2.07580   2.07693   2.08418   2.09653   2.11377
 Alpha virt. eigenvalues --    2.12088   2.14776   2.15875   2.18901   2.19294
 Alpha virt. eigenvalues --    2.20270   2.21465   2.21892   2.23894   2.24652
 Alpha virt. eigenvalues --    2.26537   2.26779   2.28192   2.29308   2.30772
 Alpha virt. eigenvalues --    2.31392   2.34566   2.35028   2.37042   2.38591
 Alpha virt. eigenvalues --    2.38891   2.39823   2.41331   2.43958   2.45471
 Alpha virt. eigenvalues --    2.46912   2.48222   2.48746   2.49508   2.52424
 Alpha virt. eigenvalues --    2.52932   2.53710   2.55403   2.56207   2.57291
 Alpha virt. eigenvalues --    2.58065   2.59525   2.62025   2.63767   2.64024
 Alpha virt. eigenvalues --    2.65015   2.66584   2.68903   2.69866   2.72431
 Alpha virt. eigenvalues --    2.74198   2.75625   2.77174   2.77798   2.78260
 Alpha virt. eigenvalues --    2.78665   2.80038   2.81140   2.81766   2.82499
 Alpha virt. eigenvalues --    2.83653   2.87033   2.88624   2.91155   2.91891
 Alpha virt. eigenvalues --    2.92727   2.93132   2.95049   2.96654   2.97889
 Alpha virt. eigenvalues --    2.98839   2.99311   3.00587   3.00748   3.00951
 Alpha virt. eigenvalues --    3.02150   3.03225   3.05207   3.06483   3.06982
 Alpha virt. eigenvalues --    3.07719   3.09651   3.10068   3.11472   3.13018
 Alpha virt. eigenvalues --    3.13932   3.14836   3.15856   3.17140   3.18409
 Alpha virt. eigenvalues --    3.19027   3.19170   3.20567   3.20723   3.22577
 Alpha virt. eigenvalues --    3.22948   3.23832   3.26143   3.26683   3.27423
 Alpha virt. eigenvalues --    3.29825   3.30639   3.31310   3.31677   3.33178
 Alpha virt. eigenvalues --    3.35610   3.36810   3.37925   3.39572   3.40007
 Alpha virt. eigenvalues --    3.41515   3.43546   3.43790   3.44634   3.47398
 Alpha virt. eigenvalues --    3.47601   3.50450   3.52749   3.54032   3.54449
 Alpha virt. eigenvalues --    3.55383   3.56485   3.57116   3.59275   3.61539
 Alpha virt. eigenvalues --    3.62091   3.63159   3.63621   3.65834   3.71747
 Alpha virt. eigenvalues --    3.72920   3.74675   3.75638   3.77836   3.82415
 Alpha virt. eigenvalues --    3.83305   3.87222   3.88101   3.89534   3.92450
 Alpha virt. eigenvalues --    3.93329   3.96068   3.96518   3.97869   4.00125
 Alpha virt. eigenvalues --    4.02327   4.02830   4.04791   4.09048   4.09819
 Alpha virt. eigenvalues --    4.10441   4.11749   4.12602   4.14063   4.15474
 Alpha virt. eigenvalues --    4.17027   4.20098   4.27812   4.28934   4.30082
 Alpha virt. eigenvalues --    4.31999   4.33219   4.37531   4.38069   4.39200
 Alpha virt. eigenvalues --    4.40119   4.42890   4.45183   4.47723   4.49377
 Alpha virt. eigenvalues --    4.49945   4.66008   4.68304   4.70993   4.72378
 Alpha virt. eigenvalues --    4.75340   4.82833   4.83109   4.86664   4.88332
 Alpha virt. eigenvalues --    4.90675   4.93384   4.96262   5.01381   5.04225
 Alpha virt. eigenvalues --    5.04770   5.06471   5.12276   5.12563   5.16087
 Alpha virt. eigenvalues --    5.16164   5.16654   5.21122   5.23191   5.23955
 Alpha virt. eigenvalues --    5.24566   5.26965   5.26974   5.28822   5.34518
 Alpha virt. eigenvalues --    5.40497   5.45537   5.48249   5.50550   5.53060
 Alpha virt. eigenvalues --    5.58210   5.65480   5.66754   5.69952   5.70648
 Alpha virt. eigenvalues --    5.71493   5.77115   5.78616   5.90892   6.17605
 Alpha virt. eigenvalues --    6.18231   6.19210   6.38579   6.40138   6.53508
 Alpha virt. eigenvalues --    6.57492   6.63330   6.67369   6.80098   6.85849
 Alpha virt. eigenvalues --    6.86151   6.86352   6.86647   6.86951   6.87165
 Alpha virt. eigenvalues --    6.87356   6.88225   6.91712   6.93553   6.93989
 Alpha virt. eigenvalues --    6.97514   7.00062   7.00089   7.00938   7.01875
 Alpha virt. eigenvalues --    7.02111   7.09181   7.10771   7.11636   7.12497
 Alpha virt. eigenvalues --    7.15751   7.16631   7.27332   7.28768   7.30507
 Alpha virt. eigenvalues --    7.31811   7.39744   7.45400   7.48109   7.48831
 Alpha virt. eigenvalues --    7.70032   7.88977   8.32338   8.33044   8.36794
 Alpha virt. eigenvalues --    8.39206   8.45604   8.49439   8.55455   8.61183
 Alpha virt. eigenvalues --    8.70864   8.71497   8.79309   8.81057   8.83284
 Alpha virt. eigenvalues --    8.87543   8.97191   8.98142   9.01427   9.02560
 Alpha virt. eigenvalues --    9.08960   9.13387  22.43657  22.43814  22.48257
 Alpha virt. eigenvalues --   22.85219  22.86783  23.06041  23.07991  23.25615
 Alpha virt. eigenvalues --   32.28815  32.53932  44.05153  44.14934  57.27677
 Alpha virt. eigenvalues --   57.35449  57.51504  57.54213
          Condensed to atoms (all electrons):
               1          2          3          4          5          6
     1  O    7.782771   0.665183  -0.062042   0.003165   0.000422   0.003056
     2  C    0.665183   4.644372   0.360523  -0.035555  -0.017356  -0.041902
     3  C   -0.062042   0.360523   4.977735   0.403295   0.376312   0.398754
     4  H    0.003165  -0.035555   0.403295   0.489370  -0.012977  -0.011393
     5  H    0.000422  -0.017356   0.376312  -0.012977   0.496201  -0.020473
     6  H    0.003056  -0.041902   0.398754  -0.011393  -0.020473   0.486074
     7  H    0.003382  -0.014890  -0.000986   0.000166   0.000063  -0.001855
     8  N   -0.093892   0.206338  -0.058957   0.006683   0.000792   0.010965
     9  H    0.000646  -0.022528  -0.002722  -0.000073  -0.000678   0.000557
    10  C   -0.004503  -0.018017   0.002442  -0.000412  -0.000966   0.000883
    11  H    0.001058   0.006076  -0.000006   0.000007  -0.000060  -0.000037
    12  H   -0.000050  -0.001726   0.000058  -0.000039   0.000503  -0.000022
    13  H    0.009680  -0.007346   0.000938  -0.000032  -0.000051  -0.000113
    14  C   -0.000744   0.001632   0.000339  -0.000032   0.000011  -0.000024
    15  C    0.009200  -0.009264  -0.001869   0.000517   0.000018  -0.000113
    16  C   -0.010567  -0.028760   0.001767  -0.000557  -0.000489   0.001481
    17  C    0.011720  -0.014478   0.000977  -0.000115  -0.000009  -0.000173
    18  C    0.000086   0.002225  -0.000013   0.000001  -0.000003  -0.000005
    19  N   -0.000213   0.000313  -0.000009  -0.000002   0.000000   0.000001
    20  O   -0.025967   0.064392  -0.005389  -0.001180   0.002570   0.002323
    21  F   -0.000317   0.001083   0.000026   0.000002   0.000001  -0.000025
    22  F   -0.000265   0.001731   0.000287   0.000742   0.000024  -0.000113
    23  F   -0.000001   0.000010  -0.000001  -0.000000  -0.000000   0.000000
    24  F   -0.000002   0.000032   0.000000  -0.000000   0.000000   0.000000
               7          8          9         10         11         12
     1  O    0.003382  -0.093892   0.000646  -0.004503   0.001058  -0.000050
     2  C   -0.014890   0.206338  -0.022528  -0.018017   0.006076  -0.001726
     3  C   -0.000986  -0.058957  -0.002722   0.002442  -0.000006   0.000058
     4  H    0.000166   0.006683  -0.000073  -0.000412   0.000007  -0.000039
     5  H    0.000063   0.000792  -0.000678  -0.000966  -0.000060   0.000503
     6  H   -0.001855   0.010965   0.000557   0.000883  -0.000037  -0.000022
     7  H    0.393429   0.346695  -0.011470  -0.017880  -0.004220  -0.004591
     8  N    0.346695   6.250316   0.309126   0.259089  -0.022594  -0.023667
     9  H   -0.011470   0.309126   0.389957  -0.016067  -0.003391   0.003020
    10  C   -0.017880   0.259089  -0.016067   4.887582   0.402653   0.404334
    11  H   -0.004220  -0.022594  -0.003391   0.402653   0.472853  -0.015748
    12  H   -0.004591  -0.023667   0.003020   0.404334  -0.015748   0.476986
    13  H    0.005440  -0.029424  -0.004094   0.408737  -0.018309  -0.017889
    14  C   -0.000003   0.000146  -0.001009   0.000024  -0.000003   0.000006
    15  C   -0.000034   0.000489   0.003441   0.000230  -0.000008  -0.000012
    16  C   -0.001068   0.014051  -0.008140  -0.002668   0.000346   0.000025
    17  C    0.000516   0.002762  -0.001978  -0.002548   0.000189  -0.000352
    18  C    0.000014  -0.000651   0.000524  -0.000424   0.000023  -0.000022
    19  N    0.000000  -0.000006  -0.000151   0.000008  -0.000002   0.000000
    20  O    0.002861  -0.072587   0.055857   0.003622  -0.000190  -0.000140
    21  F    0.000087  -0.005236   0.012695   0.004086  -0.000389   0.000367
    22  F    0.000001  -0.000018  -0.000032  -0.000002  -0.000000   0.000000
    23  F    0.000000  -0.000000   0.000001  -0.000000  -0.000000  -0.000000
    24  F   -0.000000  -0.000001  -0.000047  -0.000061   0.000000   0.000001
              13         14         15         16         17         18
     1  O    0.009680  -0.000744   0.009200  -0.010567   0.011720   0.000086
     2  C   -0.007346   0.001632  -0.009264  -0.028760  -0.014478   0.002225
     3  C    0.000938   0.000339  -0.001869   0.001767   0.000977  -0.000013
     4  H   -0.000032  -0.000032   0.000517  -0.000557  -0.000115   0.000001
     5  H   -0.000051   0.000011   0.000018  -0.000489  -0.000009  -0.000003
     6  H   -0.000113  -0.000024  -0.000113   0.001481  -0.000173  -0.000005
     7  H    0.005440  -0.000003  -0.000034  -0.001068   0.000516   0.000014
     8  N   -0.029424   0.000146   0.000489   0.014051   0.002762  -0.000651
     9  H   -0.004094  -0.001009   0.003441  -0.008140  -0.001978   0.000524
    10  C    0.408737   0.000024   0.000230  -0.002668  -0.002548  -0.000424
    11  H   -0.018309  -0.000003  -0.000008   0.000346   0.000189   0.000023
    12  H   -0.017889   0.000006  -0.000012   0.000025  -0.000352  -0.000022
    13  H    0.474787  -0.000025  -0.000126  -0.002783   0.001622   0.000889
    14  C   -0.000025   4.691168   0.341645  -0.020242  -0.028443  -0.064987
    15  C   -0.000126   0.341645   5.267198   0.186215   0.087217  -0.035675
    16  C   -0.002783  -0.020242   0.186215   5.305523   0.146167   0.015984
    17  C    0.001622  -0.028443   0.087217   0.146167   5.392435   0.337218
    18  C    0.000889  -0.064987  -0.035675   0.015984   0.337218   4.618190
    19  N    0.000020   0.543494  -0.137550   0.023812  -0.151988   0.569942
    20  O    0.000894   0.008289  -0.043833   0.340957  -0.062491   0.006862
    21  F    0.001204   0.000059   0.004656  -0.048226   0.233853  -0.027049
    22  F   -0.000000  -0.041616   0.303386  -0.071489   0.004843   0.000354
    23  F    0.000000   0.349422  -0.080031   0.005208  -0.001251  -0.002897
    24  F    0.000153  -0.002995  -0.001257   0.004519  -0.087547   0.359141
              19         20         21         22         23         24
     1  O   -0.000213  -0.025967  -0.000317  -0.000265  -0.000001  -0.000002
     2  C    0.000313   0.064392   0.001083   0.001731   0.000010   0.000032
     3  C   -0.000009  -0.005389   0.000026   0.000287  -0.000001   0.000000
     4  H   -0.000002  -0.001180   0.000002   0.000742  -0.000000  -0.000000
     5  H    0.000000   0.002570   0.000001   0.000024  -0.000000   0.000000
     6  H    0.000001   0.002323  -0.000025  -0.000113   0.000000   0.000000
     7  H    0.000000   0.002861   0.000087   0.000001   0.000000  -0.000000
     8  N   -0.000006  -0.072587  -0.005236  -0.000018  -0.000000  -0.000001
     9  H   -0.000151   0.055857   0.012695  -0.000032   0.000001  -0.000047
    10  C    0.000008   0.003622   0.004086  -0.000002  -0.000000  -0.000061
    11  H   -0.000002  -0.000190  -0.000389  -0.000000  -0.000000   0.000000
    12  H    0.000000  -0.000140   0.000367   0.000000  -0.000000   0.000001
    13  H    0.000020   0.000894   0.001204  -0.000000   0.000000   0.000153
    14  C    0.543494   0.008289   0.000059  -0.041616   0.349422  -0.002995
    15  C   -0.137550  -0.043833   0.004656   0.303386  -0.080031  -0.001257
    16  C    0.023812   0.340957  -0.048226  -0.071489   0.005208   0.004519
    17  C   -0.151988  -0.062491   0.233853   0.004843  -0.001251  -0.087547
    18  C    0.569942   0.006862  -0.027049   0.000354  -0.002897   0.359141
    19  N    6.535083   0.000235   0.004091   0.004393  -0.073345  -0.073554
    20  O    0.000235   8.379722  -0.002016  -0.001122  -0.000047  -0.000053
    21  F    0.004091  -0.002016   9.020080  -0.000021   0.000001   0.002334
    22  F    0.004393  -0.001122  -0.000021   8.988498   0.002450   0.000001
    23  F   -0.073345  -0.000047   0.000001   0.002450   8.974465  -0.000026
    24  F   -0.073554  -0.000053   0.002334   0.000001  -0.000026   8.972641
 Mulliken charges:
               1
     1  O   -0.291805
     2  C    0.257912
     3  C   -0.391458
     4  H    0.158420
     5  H    0.176145
     6  H    0.172153
     7  H    0.304344
     8  N   -0.100418
     9  H    0.296555
    10  C   -0.310141
    11  H    0.181752
    12  H    0.178959
    13  H    0.175829
    14  C    0.223886
    15  C    0.105562
    16  C    0.148935
    17  C    0.131852
    18  C    0.220274
    19  N   -0.244573
    20  O   -0.653571
    21  F   -0.201345
    22  F   -0.192031
    23  F   -0.173957
    24  F   -0.173279
 Sum of Mulliken charges =  -0.00000
 Mulliken charges with hydrogens summed into heavy atoms:
               1
     1  O   -0.291805
     2  C    0.257912
     3  C    0.115260
     8  N    0.500481
    10  C    0.226399
    14  C    0.223886
    15  C    0.105562
    16  C    0.148935
    17  C    0.131852
    18  C    0.220274
    19  N   -0.244573
    20  O   -0.653571
    21  F   -0.201345
    22  F   -0.192031
    23  F   -0.173957
    24  F   -0.173279
 APT charges:
               1
     1  O   -0.407340
     2  C    0.219883
     3  C   -1.225905
     4  H    0.319300
     5  H    0.795815
     6  H    0.360463
     7  H    0.946952
     8  N   -0.547409
     9  H    0.089886
    10  C   -1.115390
    11  H    0.586062
    12  H    0.743080
    13  H    0.014297
    14  C   -0.015233
    15  C   -0.190836
    16  C   -0.232235
    17  C   -0.214880
    18  C   -0.046063
    19  N    0.121472
    20  O   -0.445287
    21  F   -0.074331
    22  F   -0.006488
    23  F    0.184553
    24  F    0.139635
 Sum of APT charges =  -0.00000
 APT charges with hydrogens summed into heavy atoms:
               1
     1  O   -0.407340
     2  C    0.219883
     3  C    0.249673
     8  N    0.489429
    10  C    0.228049
    14  C   -0.015233
    15  C   -0.190836
    16  C   -0.232235
    17  C   -0.214880
    18  C   -0.046063
    19  N    0.121472
    20  O   -0.445287
    21  F   -0.074331
    22  F   -0.006488
    23  F    0.184553
    24  F    0.139635
 Electronic spatial extent (au):  <R**2>=           3644.6394
 Charge=             -0.0000 electrons
 Dipole moment (field-independent basis, Debye):
    X=            -14.1538    Y=              2.8458    Z=             -0.0826  Tot=             14.4373
 Quadrupole moment (field-independent basis, Debye-Ang):
   XX=            -62.1360   YY=            -91.5457   ZZ=            -95.4556
   XY=             -6.2327   XZ=             -2.7784   YZ=             -0.6263
 Traceless Quadrupole moment (field-independent basis, Debye-Ang):
   XX=             20.9098   YY=             -8.4999   ZZ=            -12.4098
   XY=             -6.2327   XZ=             -2.7784   YZ=             -0.6263
 Octapole moment (field-independent basis, Debye-Ang**2):
  XXX=           -198.0012  YYY=              3.4932  ZZZ=              0.9357  XYY=            -39.0996
  XXY=              8.4205  XXZ=            -19.5631  XZZ=              3.9972  YZZ=              9.2912
  YYZ=              5.1947  XYZ=             -3.0775
 Hexadecapole moment (field-independent basis, Debye-Ang**3):
 XXXX=          -2311.3849 YYYY=          -1269.4158 ZZZZ=           -367.5455 XXXY=            -56.7638
 XXXZ=            -21.9562 YYYX=            -35.4681 YYYZ=            -12.1168 ZZZX=             17.2258
 ZZZY=             -6.0392 XXYY=           -609.7758 XXZZ=           -490.2898 YYZZ=           -267.1460
 XXYZ=              1.0981 YYXZ=             -9.6811 ZZXY=            -21.3537
 N-N= 1.192555097331D+03 E-N=-4.667987166969D+03  KE= 9.638298094918D+02
  Exact polarizability:   0.000   0.000   0.000   0.000   0.000   0.000
 Approx polarizability: 207.724   4.460 196.490  36.322   3.920 142.960
 No NMR shielding tensors so no spin-rotation constants.
 Leave Link  601 at Wed Jul 10 19:00:31 2024, MaxMem=  8053063680 cpu:               2.3 elap:               0.2
 (Enter /share/apps/g16.b01_avx2/g16/l701.exe)
 ... and contract with generalized density number  0.
 Compute integral second derivatives.
 R6Disp: Adding Grimme-D3 dispersion energy 2nd derivatives to the Hessian.
   1 Symmetry operations used in ECPInt.
 ECPInt:  NShTT=   21736 NPrTT=   68272 LenC2=   19596 LenP2D=   44476.
 LDataN:  DoStor=T MaxTD1= 8 Len=  415
 D2PCM: PCM CHGder 2nd derivatives, FixD1E=F FixD2E=F DoIter=F DoCFld=F I1PDM=0
 GePol: Maximum number of non-zero 2nd derivatives   =     211
 Leave Link  701 at Wed Jul 10 19:00:36 2024, MaxMem=  8053063680 cpu:              72.5 elap:               4.5
 (Enter /share/apps/g16.b01_avx2/g16/l702.exe)
 L702 exits ... SP integral derivatives will be done elsewhere.
 Leave Link  702 at Wed Jul 10 19:00:36 2024, MaxMem=  8053063680 cpu:               0.2 elap:               0.0
 (Enter /share/apps/g16.b01_avx2/g16/l703.exe)
 Integral derivatives from FoFJK, PRISM(SPDF).
 Compute integral second derivatives, UseDBF=F ICtDFT=           0.
 Calling FoFJK, ICntrl=    100147 FMM=F ISym2X=0 I1Cent= 0 IOpClX= 0 NMat=1 NMatS=1 NMatT=0.
 FoFJK:  IHMeth= 1 ICntrl=  100147 DoSepK=F KAlg= 0 I1Cent=           0 FoldK=F
 IRaf=         0 NMat=       1 IRICut=       1 DoRegI=T DoRafI=F ISym2E= 0 IDoP0=0 IntGTp=1.
 FoFCou: FMM=F IPFlag=           0 FMFlag=      100000 FMFlg1=         800
         NFxFlg=           0 DoJE=F BraDBF=F KetDBF=F FulRan=T
         wScrn=  0.000000 ICntrl=    100147 IOpCl=  0 I1Cent=           0 NGrid=           0
         NMat0=    1 NMatS0=      1 NMatT0=    0 NMatD0=    1 NMtDS0=    0 NMtDT0=    0
 Symmetry not used in FoFCou.
 Leave Link  703 at Wed Jul 10 19:04:28 2024, MaxMem=  8053063680 cpu:            3709.5 elap:             231.9
 (Enter /share/apps/g16.b01_avx2/g16/l716.exe)
 Dipole        =-5.56853923D+00 1.11960860D+00-3.25025240D-02
 Polarizability= 0.00000000D+00 0.00000000D+00 0.00000000D+00
                 0.00000000D+00 0.00000000D+00 0.00000000D+00
 ***** Axes restored to original set *****
 -------------------------------------------------------------------
 Center     Atomic                   Forces (Hartrees/Bohr)
 Number     Number              X              Y              Z
 -------------------------------------------------------------------
      1        8           0.003765538    0.000280496   -0.002886694
      2        6           0.000472442    0.002044273    0.008222828
      3        6          -0.001115865   -0.000416438   -0.000444195
      4        1           0.000009616   -0.000199736    0.000103708
      5        1          -0.000019604   -0.000509174   -0.000046572
      6        1          -0.000085390    0.000084470   -0.000191897
      7        1          -0.000319365   -0.000123412   -0.000872928
      8        7          -0.004697132   -0.000921000   -0.001279137
      9        1           0.004005008    0.005869397   -0.001598846
     10        6          -0.000070744   -0.001044987   -0.000448595
     11        1           0.000272592    0.000050284   -0.000048496
     12        1          -0.000715316   -0.000366195    0.000230827
     13        1           0.000189595   -0.000244573    0.001455113
     14        6           0.008110940   -0.018694589   -0.006096927
     15        6          -0.024993381   -0.003932719    0.016897145
     16        6           0.080035865    0.053353769   -0.053176446
     17        6          -0.023784385   -0.020609187    0.014393326
     18        6          -0.009061775    0.018204239    0.006422788
     19        7           0.025550460    0.015185664   -0.015805103
     20        8          -0.070683981   -0.051656480    0.042815632
     21        9          -0.007073877    0.008658989    0.005378205
     22        9           0.001223911   -0.016869136   -0.001246646
     23        9           0.015478788   -0.007729787   -0.010228944
     24        9           0.003506060    0.019585833   -0.001548148
 -------------------------------------------------------------------
 Cartesian Forces:  Max     0.080035865 RMS     0.019423915
 FormGI is forming the generalized inverse of G from B-inverse, IUseBI=4.
 Leave Link  716 at Wed Jul 10 19:04:28 2024, MaxMem=  8053063680 cpu:               0.3 elap:               0.0
 (Enter /share/apps/g16.b01_avx2/g16/l103.exe)

 GradGradGradGradGradGradGradGradGradGradGradGradGradGradGradGradGradGrad
 Berny optimization.
 Red2BG is reusing G-inverse.
 Internal  Forces:  Max     0.094837371 RMS     0.011949702
 Search for a saddle point.
 Step number   1 out of a maximum of  120
 All quantities printed in internal units (Hartrees-Bohrs-Radians)
 Swapping is turned off.
 Second derivative matrix not updated -- analytic derivatives used.
 ITU=  0
     Eigenvalues ---   -0.00448   0.00112   0.00188   0.00282   0.00470
     Eigenvalues ---    0.01725   0.01787   0.01860   0.02082   0.02217
     Eigenvalues ---    0.02617   0.02662   0.02785   0.03426   0.04079
     Eigenvalues ---    0.04160   0.04529   0.04595   0.04716   0.04983
     Eigenvalues ---    0.05028   0.05539   0.06344   0.09530   0.10916
     Eigenvalues ---    0.12038   0.12247   0.12701   0.13357   0.13813
     Eigenvalues ---    0.14859   0.15767   0.16870   0.16984   0.18163
     Eigenvalues ---    0.18375   0.18580   0.18759   0.20483   0.21764
     Eigenvalues ---    0.23177   0.23980   0.25484   0.25968   0.29132
     Eigenvalues ---    0.30676   0.31250   0.33217   0.33491   0.34142
     Eigenvalues ---    0.34545   0.35308   0.35520   0.35700   0.35760
     Eigenvalues ---    0.36448   0.37339   0.38946   0.40396   0.43383
     Eigenvalues ---    0.43592   0.44264   0.44552   0.47437   0.52311
     Eigenvalues ---    0.91193
 Eigenvectors required to have negative eigenvalues:
                          R10       A16       D11       D12       D41
   1                    0.68607  -0.42830  -0.20032  -0.18852   0.18508
[...]
 50105,-0.00070613,0.00004380,0.00004596,0.00011179,0.00053491,0.000523
 24,0.00070749,-0.00130719,-0.00169750,0.00036688,-0.00428355,0.0005993
 8,0.00068286,0.00295116,-0.00095043,0.00105441,-0.00014024,0.00423411,
 -0.00068588,-0.00156954,0.00050080,-0.00031299,0.00048148,-0.00016931,
 0.00004268,0.00035581,-0.00006619,0.00005702,0.00035279,-0.00008121,0.
 00008835,-0.05940833,-0.01520015,0.02421597,-0.17930700,0.10904840,0.0
 1759239,0.70954066,0.00084768,-0.00105703,0.00326776,-0.00610229,0.000
 31368,-0.00632741,0.00087994,0.00021294,-0.00032731,0.00003697,0.00006
 305,0.00001522,0.00011753,0.00025828,0.00019845,-0.00014189,-0.0004102
 5,0.00025490,-0.00344855,0.00055389,0.00060375,0.00411543,-0.00103529,
 0.00079347,0.00056079,0.00128742,-0.00039990,-0.00061939,-0.00030596,0
 .00058560,0.00019918,-0.00007162,0.00000990,0.00012198,-0.00001042,0.0
 0001096,0.00041128,-0.00013273,0.00003259,0.02794061,0.06613958,-0.027
 05572,0.05556177,-0.16387210,0.00212984,0.02472121,0.61013205,-0.00145
 639,0.00166416,-0.00430886,0.00675119,-0.00177617,0.00782896,-0.002349
 45,-0.00082122,0.00043798,-0.00009706,-0.00007278,-0.00012763,-0.00047
 374,-0.00033363,-0.00065784,0.00027792,0.00097704,-0.00074988,0.001956
 75,-0.00026949,-0.00120087,-0.00287531,0.00080930,-0.00008133,-0.00037
 205,-0.00173321,0.00056910,0.00073371,0.00018304,-0.00012253,-0.000263
 30,0.00010388,-0.00002863,-0.00011816,-0.00000896,-0.00002474,-0.00028
 280,0.00007732,-0.00003282,0.01400762,-0.01050197,-0.00779034,0.029669
 25,-0.01791763,-0.07204471,-0.19763387,-0.10926915,0.28111184,0.001442
 09,0.00243827,-0.00161238,0.00335683,-0.00365199,0.00411879,-0.0011691
 7,-0.00016621,0.00036899,-0.00003736,0.00008069,-0.00008181,-0.0002401
 8,-0.00022301,-0.00030736,0.00029968,0.00055351,-0.00019201,0.00129036
 ,-0.00067618,0.00015447,-0.00023384,0.00086007,0.00000483,-0.00691591,
 -0.00185105,0.00093851,-0.00015369,0.00078271,-0.00003907,-0.00009617,
 0.00000358,0.00000582,0.00023442,-0.00012532,0.00001078,-0.00006642,-0
 .00001090,-0.00000808,-0.02099501,-0.02735767,0.01534449,0.02973118,0.
 02341134,-0.01822305,-0.09027008,0.02454941,0.00414418,0.67084403,-0.0
 0030379,-0.00025392,-0.00118229,0.00160618,0.00103025,0.00298812,-0.00
 026507,-0.00047814,0.00008584,-0.00003010,-0.00011106,-0.00002068,-0.0
 0004797,-0.00000705,-0.00014694,0.00006112,0.00023827,-0.00014519,0.00
 048219,-0.00006674,-0.00048443,-0.00202464,-0.00133805,-0.00042795,0.0
 0610513,0.00278998,-0.00033932,0.00076984,-0.00060467,0.00004626,-0.00
 008869,0.00007231,-0.00002136,-0.00028153,0.00010376,-0.00002691,-0.00
 010820,0.00006255,-0.00001265,-0.01274064,-0.03254275,0.01299956,0.041
 55768,-0.03603394,-0.00782518,-0.03208881,-0.24654910,0.05520653,-0.01
 665618,0.62119131,0.00031271,-0.00028480,0.00083610,-0.00178100,0.0007
 5912,-0.00127079,0.00071345,0.00003573,-0.00012072,0.00003693,-0.00000
 836,0.00004682,0.00014615,0.00008615,0.00017535,-0.00019895,-0.0004113
 8,0.00015759,-0.00065993,0.00026273,0.00008569,0.00036764,-0.00022084,
 0.00002945,0.00110954,0.00067925,-0.00024372,-0.00008346,-0.00008541,0
 .00003114,0.00005386,-0.00001284,0.00000075,-0.00000555,0.00001655,0.0
 0000316,0.00005601,-0.00000470,0.00000641,0.01173685,0.01815562,-0.005
 55796,-0.02168649,-0.00129270,0.00555458,0.01704242,0.03444761,-0.0793
 4493,-0.20708312,-0.11381030,0.21120355,0.00043194,-0.00041648,0.00119
 041,-0.00314584,0.00009876,-0.00246323,0.00066903,0.00040843,-0.000419
 64,0.00003967,0.00003093,0.00004907,0.00014432,0.00014385,0.00023388,-
 0.00011528,-0.00030893,0.00020769,-0.00092611,0.00022546,0.00026396,0.
 00081777,-0.00015432,0.00016467,-0.00069092,0.00053211,0.00002255,-0.0
 0048728,0.00008213,-0.00008346,0.00013608,-0.00005520,0.00000853,0.000
 08140,-0.00001027,0.00001820,0.00008910,-0.00002095,0.00001821,0.01807
 296,0.06531503,-0.02480550,-0.04945020,0.00090703,0.01969793,0.0152411
 8,-0.08545768,0.01237320,-0.30365166,-0.02100632,0.09708940,0.70616926
 ,0.00024381,-0.00024535,0.00109548,-0.00169728,-0.00008161,-0.00198044
 ,0.00035887,0.00022322,-0.00017354,0.00001626,0.00004188,0.00001374,0.
 00008603,0.00010031,0.00012145,-0.00002220,-0.00012972,0.00012148,-0.0
 0048473,0.00007711,0.00018492,0.00092178,0.00025935,0.00024486,-0.0015
 4095,-0.00047414,0.00001720,-0.00038220,0.00016043,-0.00005858,0.00008
 474,-0.00004327,0.00000330,0.00009847,-0.00002982,0.00001624,0.0000633
 6,-0.00001683,0.00001380,0.03582559,-0.08104934,0.00378045,0.01422750,
 -0.00607337,-0.00303162,-0.04121280,-0.00055533,0.01449421,-0.11009781
 ,-0.11801309,0.05502283,-0.04240553,0.66264706,-0.00020902,0.00016371,
 -0.00070438,0.00171709,0.00007246,0.00135259,-0.00029120,-0.00009000,0
 .00009794,-0.00003111,-0.00002775,-0.00002282,-0.00005027,-0.00008893,
 -0.00006886,0.00007190,0.00011692,-0.00002815,0.00044860,-0.00007685,-
 0.00015622,-0.00060607,0.00013710,0.00002210,0.00061028,-0.00011261,-0
 .00016581,0.00023073,-0.00010911,0.00006801,-0.00007914,0.00002500,-0.
 00000512,-0.00006631,0.00001946,-0.00000944,-0.00004501,0.00001231,-0.
 00001067,-0.01803079,-0.00708639,0.00095835,0.01630169,0.00181023,-0.0
 0380517,0.00251925,0.03095773,-0.01213858,0.11702290,0.02183338,-0.107
 88754,-0.19496560,-0.10197792,0.25595559,-0.00017490,0.00037619,-0.001
 25727,0.00242160,-0.00003818,0.00247538,-0.00052033,-0.00028249,0.0002
 4407,-0.00003089,-0.00003907,-0.00003320,-0.00011067,-0.00012414,-0.00
 017210,0.00008840,0.00023628,-0.00014481,0.00072176,-0.00014846,-0.000
 22786,-0.00094035,-0.00004785,-0.00023401,0.00124461,-0.00001281,0.000
 00510,0.00041987,-0.00015561,0.00007125,-0.00010776,0.00004934,-0.0000
 0724,-0.00010104,0.00002459,-0.00001697,-0.00007585,0.00002151,-0.0000
 1442,-0.10795569,-0.04535590,0.02794349,0.02064953,-0.02324209,0.00159
 362,0.00287659,0.03294810,-0.00964022,-0.04633003,-0.00759834,0.023285
 48,-0.28343379,0.13047155,0.05234726,0.42575596,0.00001532,0.00029689,
 -0.00065656,0.00078442,-0.00049292,0.00110886,-0.00022217,0.00003736,-
 0.00001910,-0.00000304,0.00001078,-0.00001113,-0.00003979,-0.00004542,
 -0.00004965,0.00009744,0.00015741,-0.00002812,0.00037370,-0.00015257,-
 0.00001811,-0.00018997,0.00008944,-0.00008191,-0.00078937,-0.00040667,
 0.00017155,0.00003558,0.00012776,-0.00004437,-0.00002249,0.00000480,0.
 00000046,0.00002282,-0.00001594,0.00000165,-0.00003798,0.00000656,-0.0
 0000277,-0.03722904,-0.34215798,0.07976016,-0.07096263,-0.01225312,0.0
 3183698,0.03320188,-0.05897411,0.00051048,0.04181233,0.04791237,-0.023
 59842,0.12237781,-0.18612198,-0.01683908,-0.15361819,0.68774316,0.0000
 2915,-0.00019864,0.00063808,-0.00107736,0.00015553,-0.00120446,0.00027
 085,0.00009314,-0.00005656,0.00002076,0.00001663,0.00001876,0.00005394
 ,0.00005865,0.00007476,-0.00005747,-0.00014066,0.00007134,-0.00036428,
 0.00008377,0.00009819,0.00043214,-0.00004355,0.00004374,-0.00031532,0.
 00006849,0.00003396,-0.00014818,0.00005867,-0.00001566,0.00004410,-0.0
 0001595,0.00000316,0.00004004,-0.00001069,0.00000558,0.00003713,-0.000
 01089,0.00000585,0.02618292,0.08281415,-0.09114857,0.01283530,0.014073
 69,0.00330180,-0.00979905,0.00084764,0.00092332,0.01204202,-0.00558389
 ,0.00864550,0.05409638,-0.01977085,-0.07809853,-0.08994599,-0.08268503
 ,0.14262460,-0.00275041,0.00336648,-0.01047892,0.01464733,-0.00105045,
 0.01733882,-0.00682590,-0.00276498,0.00036931,-0.00029671,-0.00015998,
 -0.00040936,-0.00085402,-0.00076383,-0.00161287,-0.00046713,0.00156139
 ,-0.00211785,0.00348235,0.00032929,-0.00314561,-0.01923368,0.00638195,
 -0.00271190,-0.00128309,-0.00444353,0.00085552,0.00324102,0.00020196,-
 0.00122492,-0.00074269,0.00029556,-0.00004800,-0.00046491,0.00000149,-
 0.00007757,-0.00118782,0.00035512,-0.00007034,0.02214174,0.01227007,-0
 .00925732,-0.08044497,-0.01422325,0.03918826,-0.37350910,-0.11100766,0
 .13883749,-0.03830620,-0.03500297,0.02844968,0.01344795,0.01208020,-0.
 00588482,-0.01259284,-0.01014943,0.00709388,0.47311672,0.00013367,0.00
 161067,-0.00056419,0.00352179,-0.00559931,0.00255368,-0.00329850,-0.00
 094289,0.00053353,-0.00005468,0.00011526,-0.00016643,-0.00058561,-0.00
 011705,-0.00088037,-0.00038408,0.00068964,-0.00145601,0.00211724,-0.00
 266735,0.00058344,0.00469480,-0.00073050,0.00128327,-0.00148553,0.0011
 8316,-0.00071794,-0.00004747,0.00127242,0.00002688,-0.00007605,0.00001
 557,-0.00003710,0.00040420,-0.00017853,0.00001019,-0.00000647,-0.00000
 647,-0.00000177,0.00377975,-0.00920928,0.00205050,0.00822984,0.0141473
 2,-0.00230057,-0.11544610,-0.13297726,0.05871682,-0.05296520,-0.025114
 48,0.02958555,0.01739057,-0.00311622,-0.00467284,-0.00817593,0.0059502
 3,0.00172813,0.14649692,0.14139732,-0.00371232,0.00121872,-0.00368934,
 0.00615980,0.00004008,-0.00153167,-0.00224422,0.00030595,0.00043882,0.
 00014997,0.00006854,0.00011590,0.00000637,-0.00039062,-0.00017951,-0.0
 0062430,-0.00052169,-0.00045536,-0.00337924,0.00061252,-0.00054171,-0.
 00123036,0.00080703,0.00105355,0.00026306,-0.00003401,-0.00115122,0.00
 048767,-0.00045312,0.00136596,-0.00023276,0.00007866,-0.00005695,-0.00
 007814,0.00002957,-0.00003363,0.00031845,-0.00011269,-0.00003108,-0.00
 565136,-0.00094733,0.00792777,0.03235110,0.00499719,0.00424814,0.14280
 065,0.05854375,-0.13467243,0.03016687,0.02184096,0.00062402,-0.0054630
 7,-0.00171591,0.00768648,0.00544397,0.00215252,-0.00236350,-0.18938763
 ,-0.08201925,0.13021161,-0.00088612,-0.00155625,-0.00032745,-0.0020022
 3,0.00309914,0.00051040,0.00071257,-0.00031787,-0.00031879,-0.00000606
 ,-0.00019511,0.00003062,0.00011092,0.00017576,0.00009260,-0.00007987,-
 0.00017243,0.00005825,-0.00099823,0.00027260,-0.00057125,-0.00426754,-
 0.00304360,-0.00028143,0.00571667,0.00136404,-0.00087481,0.00072315,-0
 .00165180,0.00017265,-0.00000197,0.00009235,-0.00001688,-0.00057963,0.
 00028708,-0.00005790,-0.00002056,0.00007757,-0.00001415,0.00014830,-0.
 01144576,0.00234405,0.00637535,-0.00508909,0.00141892,-0.02206877,0.00
 491828,0.00914502,-0.19915444,0.11736209,0.03590910,-0.02853108,0.0445
 2494,0.00068700,-0.01088278,0.00707001,0.00563312,0.01537473,-0.002096
 45,-0.00590716,0.24382204,-0.00001279,0.00018889,-0.00089711,0.0010447
 0,-0.00024203,0.00114575,-0.00028291,0.00001640,0.00007728,-0.00000198
 ,0.00001636,-0.00001951,-0.00005534,-0.00006248,-0.00005540,0.00007630
 ,0.00014214,-0.00005650,0.00050402,-0.00007055,-0.00005003,-0.00137047
 ,0.00101242,0.00002923,-0.00380200,-0.00468535,0.00024569,-0.00012978,
 -0.00025897,0.00000563,-0.00002902,0.00000255,0.00000371,-0.00006160,0
 .00004119,-0.00001170,-0.00003725,0.00000501,-0.00001016,0.00007915,0.
 00715594,-0.00174150,-0.00983615,0.00064611,0.00481240,0.05374873,-0.0
 3190467,-0.01159652,0.11926379,-0.17169588,-0.01263759,-0.00379204,-0.
 00549337,0.00280282,0.00400631,-0.00701237,0.00207925,-0.00635889,0.00
 610994,-0.00047759,-0.15828469,0.20561967,-0.00058406,-0.00062611,-0.0
 0021532,0.00058995,0.00004032,-0.00047740,-0.00017060,0.00001251,0.000
 15472,0.00001038,0.00002965,-0.00000420,-0.00003116,-0.00003378,-0.000
 03709,0.00001816,0.00003335,-0.00003180,-0.00013072,-0.00017369,-0.000
 03797,0.00021255,0.00028902,0.00070584,-0.00078042,-0.00034261,-0.0007
 4198,-0.00001330,0.00015893,0.00000509,-0.00001837,-0.00000104,-0.0000
 0412,0.00004412,-0.00002618,-0.00000954,0.00000470,-0.00000645,-0.0000
 0431,-0.00019734,0.00247037,-0.00106858,0.00225573,0.00322439,0.004312
 37,-0.00278887,0.00689213,0.00508227,0.03706166,-0.01310068,-0.0407416
 2,0.01149297,-0.01494412,-0.00043981,0.00617710,0.00086646,0.00589091,
 -0.00534724,-0.00151272,-0.00200257,-0.04577078,0.01970631,0.03353219,
 -0.00008383,-0.00006732,0.00009982,-0.00008784,0.00006806,-0.00020959,
 0.00005609,-0.00001486,0.00002017,0.00001793,0.00000423,0.00000478,-0.
 00000267,0.00001896,-0.00000330,0.00003050,0.00001981,-0.00000687,-0.0
 0003607,0.00001051,-0.00002548,0.00003181,-0.00000328,0.00001843,0.000
 16535,0.00002189,-0.00000700,0.00000392,-0.00003241,0.00000184,0.00000
 304,-0.00000016,-0.00000042,-0.00000813,0.00000408,-0.00000103,0.00000
 197,-0.00000032,-0.00000018,0.00276763,-0.03477611,0.00743469,-0.06742
 668,-0.01177945,0.01624391,0.00321899,0.03209934,-0.00634362,-0.004724
 59,0.00013261,0.00391879,-0.00148985,0.00160072,-0.00002269,-0.0036897
 5,-0.00184103,0.00500971,0.00636700,0.00116623,-0.00371602,-0.00026667
 ,0.00261971,-0.00072304,0.06081950,0.00014001,-0.00025624,0.00098760,-
 0.00177718,0.00005950,-0.00182147,0.00041447,0.00019977,-0.00018743,0.
 00002752,0.00002337,0.00003181,0.00009278,0.00011364,0.00013049,-0.000
 05068,-0.00018243,0.00008586,-0.00050648,0.00013625,0.00013302,0.00056
 532,0.00004857,0.00014414,-0.00083505,0.00002594,0.00005905,-0.0003026
 4,0.00007950,-0.00006824,0.00008296,-0.00003759,0.00000515,0.00006345,
 -0.00001168,0.00001216,0.00004913,-0.00001373,0.00000979,0.01143688,-0
 .03606523,0.00418037,-0.00920467,-0.31412572,0.06908425,-0.01559200,-0
 .05389191,0.01973421,0.00482662,0.01053312,-0.00285215,-0.00947629,0.0
 0871285,0.00134015,0.00110109,-0.01305788,0.00462929,0.00648147,0.0122
 4685,-0.00529198,0.00407103,-0.00600439,-0.00014271,0.01481827,0.39128
 270,-0.00004054,0.00011626,-0.00031439,0.00054146,-0.00013498,0.000563
 49,-0.00016257,-0.00008593,0.00006798,-0.00000102,-0.00000507,-0.00001
 049,-0.00003919,-0.00002941,-0.00005459,-0.00000268,0.00006197,-0.0000
 6599,0.00011171,-0.00003630,-0.00006728,-0.00018276,0.00000475,-0.0000
 2197,0.00012488,-0.00002039,-0.00000303,0.00008004,-0.00000351,0.00001
 137,-0.00002210,0.00000973,-0.00000234,-0.00001169,0.00000059,-0.00000
 296,-0.00001521,0.00000442,-0.00000208,-0.00330792,0.02154940,-0.00252
 108,0.01548915,0.06989796,-0.05367456,0.00489388,0.00190052,0.00399356
 ,0.00288202,-0.00112044,0.00513468,0.00255467,-0.00272027,-0.00078831,
 0.00428817,0.00571560,0.00548072,-0.00502444,-0.00422273,-0.00223145,-
 0.00103369,0.00030633,-0.00016072,-0.01915215,-0.09144961,0.04908795,-
 0.00032213,0.00014685,-0.00089125,0.00157438,0.00013348,0.00163633,-0.
 00029749,-0.00013287,0.00011009,-0.00002327,-0.00002634,-0.00002411,-0
 .00006611,-0.00007329,-0.00009752,0.00011987,0.00019247,-0.00006264,0.
 00065859,-0.00013291,-0.00022356,-0.00081084,0.00003964,-0.00013182,0.
 00076950,-0.00012743,-0.00001890,0.00029741,-0.00007608,-0.00001905,-0
 .00007522,0.00003376,-0.00000482,-0.00007209,0.00001564,-0.00001027,-0
 .00007876,0.00002420,-0.00000861,-0.22836470,0.09772718,0.04683095,-0.
 05238121,0.04703908,0.01269837,0.01120399,-0.01248032,0.00147299,0.006
 02001,0.00150614,-0.00267791,-0.00506946,-0.00471017,0.00617723,0.0057
 3497,0.02524432,-0.00862851,-0.01067678,0.00078309,0.00252154,-0.00535
 816,0.00427039,0.00058483,0.00406128,-0.00597992,-0.00159695,0.2724799
 9,0.00019098,-0.00003880,0.00042349,-0.00079406,-0.00012049,-0.0007528
 6,0.00014995,0.00008328,-0.00007008,0.00001117,0.00001566,0.00001103,0
 .00003516,0.00003892,0.00005112,-0.00005135,-0.00008610,0.00003458,-0.
 00028393,0.00004845,0.00009513,0.00037757,0.00002906,0.00007516,-0.000
 60588,-0.00002991,0.00003568,-0.00016296,0.00007208,-0.00001414,0.0000
 3890,-0.00001871,0.00000272,0.00004445,-0.00001159,0.00000656,0.000031
 60,-0.00000989,0.00000492,0.10612122,-0.13306866,-0.01873741,0.0076871
 3,-0.00531203,0.00092231,-0.00620162,-0.00067292,0.00433018,-0.0019133
 4,0.00042478,0.00070002,0.00166087,0.00233053,0.00073153,0.04498642,-0
 .06030394,-0.00307018,0.00369845,0.00130839,-0.00173902,0.00492335,-0.
 00351594,-0.00121894,-0.00333974,0.00913949,-0.00184316,-0.15736451,0.
 19351651,0.00005208,-0.00004415,0.00019388,-0.00033058,-0.00001373,-0.
 00036016,0.00006275,0.00002917,-0.00002314,0.00000487,0.00000492,0.000
 00537,0.00001569,0.00001460,0.00002088,-0.00003761,-0.00004950,0.00001
 163,-0.00020671,0.00003611,0.00002735,0.00017933,-0.00002554,0.0000487
 0,-0.00013602,0.00006001,-0.00002140,-0.00005851,0.00001814,0.00001377
 ,0.00001497,-0.00000656,0.00000029,0.00001604,-0.00000351,0.00000219,0
 .00001979,-0.00000538,0.00000225,0.04489921,-0.01560824,-0.05593590,0.
 02179302,-0.01398996,0.00574834,0.00010945,0.00668489,0.00626200,-0.00
 176480,-0.00065781,0.00081660,0.00461721,0.00315659,0.00587960,-0.0131
 8634,0.00438613,0.00257495,0.00261634,-0.00099278,-0.00217581,0.000448
 73,-0.00102828,-0.00092269,-0.00223900,-0.00079056,-0.00304474,-0.0566
 6991,0.01927648,0.04012251,-0.00008291,0.00005369,-0.00025266,0.000489
 46,0.00003379,0.00047995,-0.00010602,-0.00005357,0.00004218,-0.0000082
 5,-0.00000768,-0.00001032,-0.00002599,-0.00001936,-0.00003720,0.000049
 49,0.00007697,-0.00002540,0.00019823,-0.00004619,-0.00006520,-0.000183
 99,0.00001179,-0.00003609,0.00029563,-0.00004371,-0.00000651,0.0000956
 4,-0.00003398,0.00000355,-0.00002355,0.00001086,-0.00000175,-0.0000235
 0,0.00000577,-0.00000361,-0.00002092,0.00000658,-0.00000342,-0.0031605
 5,-0.00015746,0.00442311,0.00302826,0.00094867,-0.00139334,-0.00494875
 ,0.00922828,0.00253665,-0.00087384,-0.04133974,0.01394838,-0.07834920,
 -0.03805015,0.02214811,0.00703338,0.04406951,-0.01348526,-0.00218258,-
 0.00409605,0.00095714,0.00212038,-0.00155818,-0.00189622,0.00027108,-0
 .00044607,-0.00037307,0.00067623,0.00076017,-0.00021998,0.07573228,-0.
 00032022,0.00017777,-0.00082926,0.00164344,0.00007622,0.00150539,-0.00
 032732,-0.00015229,0.00014586,-0.00002009,-0.00002312,-0.00002346,-0.0
 0007499,-0.00007473,-0.00010730,0.00011971,0.00019248,-0.00007815,0.00
 059054,-0.00012931,-0.00018292,-0.00064959,0.00004600,-0.00011354,0.00
 076128,-0.00013735,-0.00004487,0.00029228,-0.00008657,0.00002138,-0.00
 007872,0.00003244,-0.00000327,-0.00006836,0.00001597,-0.00001152,-0.00
 006606,0.00001649,-0.00001162,-0.00664653,0.00092506,0.00425834,0.0043
 0061,0.00380067,-0.00254299,0.00299939,0.01345981,-0.00250643,-0.00288
 749,-0.05154981,0.01546831,-0.04606897,-0.27310929,0.07105870,0.024617
 68,-0.06134188,0.00482331,-0.00759536,-0.00538740,0.00300772,-0.004385
 18,0.00998940,-0.00159443,-0.00072974,-0.00895474,0.00210430,0.0039476
 1,-0.00381817,-0.00045104,0.03064607,0.37603235,0.00014128,-0.00004899
 ,0.00028715,-0.00062388,-0.00007747,-0.00052870,0.00009394,0.00003735,
 -0.00004274,0.00000724,0.00000917,0.00000733,0.00002072,0.00002715,0.0
 0002911,-0.00005382,-0.00005825,0.00000494,-0.00020501,0.00004365,0.00
 006849,0.00024041,-0.00002772,0.00004233,-0.00028963,0.00007243,0.0000
 1589,-0.00010849,0.00003115,-0.00001444,0.00003047,-0.00001246,0.00000
 154,0.00002556,-0.00000585,0.00000404,0.00002343,-0.00000591,0.0000042
 0,0.00595377,0.00182927,0.00588102,-0.00215912,-0.00126111,0.00112555,
 0.00397457,-0.00479722,0.00711709,0.00504536,0.02990535,0.00181588,0.0
 2410156,0.06808669,-0.06769124,-0.00899445,-0.00247661,0.00245207,0.00
 204948,0.00247272,-0.00255603,-0.00127616,-0.00263251,-0.00278369,-0.0
 0030172,0.00203682,-0.00137376,-0.00096648,0.00074486,0.00075354,-0.02
 672904,-0.09389252,0.05538044\\-0.00000223,-0.00000055,-0.00000091,0.0
 0000112,-0.00000200,0.00000098,-0.00000116,-0.00000096,-0.00000010,0.0
 0000181,-0.00000127,0.00000119,0.00000162,-0.00000202,0.00000090,0.000
 00162,-0.00000044,0.00000189,0.00000066,-0.00000060,0.00000009,-0.0000
 0004,-0.00000192,-0.00000133,-0.00000076,0.00000178,0.00000100,-0.0000
 0032,-0.00000251,0.00000060,-0.00000088,-0.00000166,0.00000030,0.00000
 030,-0.00000217,0.00000120,-0.00000107,-0.00000219,0.00000024,0.000000
 11,0.00000181,-0.00000073,0.00000117,0.00000200,-0.00000018,0.00000082
 ,-0.00000002,-0.00000102,-0.00000072,0.00000119,-0.00000034,-0.0000006
 4,0.00000150,-0.00000131,-0.00000080,0.00000270,-0.00000107,0.00000059
 ,0.00000100,0.00000111,-0.00000136,0.00000027,-0.00000034,0.00000147,0
 .00000170,0.00000007,0.00000064,0.00000279,-0.00000082,-0.00000194,0.0
 0000160,-0.00000141\\\@


 LOGIC IS A SYSTEMATIC METHOD OF COMING TO THE
 WRONG CONCLUSION WITH CONFIDENCE.
 Job cpu time:       0 days  3 hours 24 minutes 51.9 seconds.
 Elapsed time:       0 days  0 hours 12 minutes 48.5 seconds.
 File lengths (MBytes):  RWF=    696 Int=      0 D2E=      0 Chk=     35 Scr=      1
 Normal termination of Gaussian 16 at Wed Jul 10 20:51:06 2024.
