 Entering Gaussian System, Link 0=g16
 Input=input.com
 Output=input.log
 Initial command:
 /share/apps/g16.b01_avx2/g16/l1.exe "/scratch/Gau-3329.inp" -scrdir="/scratch/"
 Entering Link 1 = /share/apps/g16.b01_avx2/g16/l1.exe PID=      3331.
  
 Copyright (c) 1988-2017, Gaussian, Inc.  All Rights Reserved.
  
 This is part of the Gaussian(R) 16 program.  It is based on
 the Gaussian(R) 09 system (copyright 2009, Gaussian, Inc.),
 the Gaussian(R) 03 system (copyright 2003, Gaussian, Inc.),
 the Gaussian(R) 98 system (copyright 1998, Gaussian, Inc.),
 the Gaussian(R) 94 system (copyright 1995, Gaussian, Inc.),
 the Gaussian 92(TM) system (copyright 1992, Gaussian, Inc.),
 the Gaussian 90(TM) system (copyright 1990, Gaussian, Inc.),
 the Gaussian 88(TM) system (copyright 1988, Gaussian, Inc.),
 the Gaussian 86(TM) system (copyright 1986, Carnegie Mellon
 University), and the Gaussian 82(TM) system (copyright 1983,
 Carnegie Mellon University). Gaussian is a federally registered
 trademark of Gaussian, Inc.
  
 This software contains proprietary and confidential information,
 including trade secrets, belonging to Gaussian, Inc.
  
 This software is provided under written license and may be
 used, copied, transmitted, or stored only in accord with that
 written license.
  
 The following legend is applicable only to US Government
 contracts under FAR:
  
                    RESTRICTED RIGHTS LEGEND
  
 Use, reproduction and disclosure by the US Government is
 subject to restrictions as set forth in subparagraphs (a)
 and (c) of the Commercial Computer Software - Restricted
 Rights clause in FAR 52.227-19.
  
 Gaussian, Inc.
 340 Quinnipiac St., Bldg. 40, Wallingford CT 06492
  
  
 ---------------------------------------------------------------
 Warning -- This program may not be used in any manner that
 competes with the business of Gaussian, Inc. or will provide
 assistance to any competitor of Gaussian, Inc.  The licensee
 of this program is prohibited from giving any competitor of
 Gaussian, Inc. access to this program.  By using this program,
 the user acknowledges that Gaussian, Inc. is engaged in the
 business of creating and licensing software in the field of
 computational chemistry and represents and warrants to the
 licensee that it is not a competitor of Gaussian, Inc. and that
 it will not use this program in any manner prohibited above.
 ---------------------------------------------------------------
  

 Cite this work as:
 Gaussian 16, Revision B.01,
 M. J. Frisch, G. W. Trucks, H. B. Schlegel, G. E. Scuseria, 
 M. A. Robb, J. R. Cheeseman, G. Scalmani, V. Barone, 
 G. A. Petersson, H. Nakatsuji, X. Li, M. Caricato, A. V. Marenich, 
 J. Bloino, B. G. Janesko, R. Gomperts, B. Mennucci, H. P. Hratchian, 
 J. V. Ortiz, A. F. Izmaylov, J. L. Sonnenberg, D. Williams-Young, 
 F. Ding, F. Lipparini, F. Egidi, J. Goings, B. Peng, A. Petrone, 
 T. Henderson, D. Ranasinghe, V. G. Zakrzewski, J. Gao, N. Rega, 
 G. Zheng, W. Liang, M. Hada, M. Ehara, K. Toyota, R. Fukuda, 
 J. Hasegawa, M. Ishida, T. Nakajima, Y. Honda, O. Kitao, H. Nakai, 
 T. Vreven, K. Throssell, J. A. Montgomery, Jr., J. E. Peralta, 
 F. Ogliaro, M. J. Bearpark, J. J. Heyd, E. N. Brothers, K. N. Kudin, 
 V. N. Staroverov, T. A. Keith, R. Kobayashi, J. Normand, 
 K. Raghavachari, A. P. Rendell, J. C. Burant, S. S. Iyengar, 
 J. Tomasi, M. Cossi, J. M. Millam, M. Klene, C. Adamo, R. Cammi, 
 J. W. Ochterski, R. L. Martin, K. Morokuma, O. Farkas, 
 J. B. Foresman, and D. J. Fox, Gaussian, Inc., Wallingford CT, 2016.
 
 ******************************************
 Gaussian 16:  ES64L-G16RevB.01 20-Dec-2017
                 5-Jun-2024 
 ******************************************
 %nproc=16
 Will use up to   16 processors via shared memory.
 %mem=60GB
 ----------------------------------------------------------------------
 #P PBE1PBE/def2TZVP opt freq EmpiricalDispersion=GD3 Int=(grid=99590) 
 scrf=(iefpcm, solvent=water)
 ----------------------------------------------------------------------
 1/18=20,19=15,26=6,38=1/1,3;
 2/9=110,12=2,17=6,18=5,40=1/2;
 3/5=44,7=101,11=2,25=1,30=1,70=2201,71=1,72=1,74=-13,75=99590,124=31/1,2,3;
 4//1;
 5/5=2,38=5,53=1/2;
 6/7=2,8=2,9=2,10=2,28=1/1;
 7//1,2,3,16;
 1/18=20,19=15,26=6/3(2);
 2/9=110/2;
 99//99;
 2/9=110/2;
 3/5=44,7=101,11=2,25=1,30=1,70=2205,71=1,72=1,74=-13,75=99590,124=31/1,2,3;
 4/5=5,16=3,69=1/1;
 5/5=2,38=5,53=1/2;
 7//1,2,3,16;
 1/18=20,19=15,26=6/3(-5);
 2/9=110/2;
 6/7=2,8=2,9=2,10=2,19=2,28=1/1;
 99/9=1/99;
 Leave Link    1 at Wed Jun  5 17:16:12 2024, MaxMem=  8053063680 cpu:               0.4 elap:               0.0
 (Enter /share/apps/g16.b01_avx2/g16/l101.exe)
 -------------------
 tfp-cf3-OH_product2
 -------------------
 Symbolic Z-matrix:
 Charge =  0 Multiplicity = 1
 C                     2.13602   0.       -0.00813 
 C                     1.42436   1.18803  -0.00193 
 C                     1.42436  -1.18803  -0.00193 
 C                     0.04347   1.1868   -0.00708 
 C                     0.04347  -1.1868   -0.00708 
 C                    -0.67658   0.       -0.03068 
 O                     3.48547   0.        0.07766 
 H                     3.86588   0.       -0.81062 
 F                     2.07293   2.34139   0.01208 
 F                     2.07293  -2.34139   0.01208 
 F                    -0.56918  -2.36031   0.02443 
 F                    -0.56918   2.36031   0.02443 
 C                    -2.18086   0.       -0.01436 
 F                    -2.68498   1.07378  -0.62358 
 F                    -2.68498  -1.07378  -0.62358 
 F                    -2.64143   0.        1.24264 
 
 ITRead=  0  0  0  0  0  0  0  0  0  0  0  0  0  0  0  0
 MicOpt= -1 -1 -1 -1 -1 -1 -1 -1 -1 -1 -1 -1 -1 -1 -1 -1
 NAtoms=     16 NQM=       16 NQMF=       0 NMMI=      0 NMMIF=      0
                NMic=       0 NMicF=      0.
                    Isotopes and Nuclear Properties:
 (Nuclear quadrupole moments (NQMom) in fm**2, nuclear magnetic moments (NMagM)
  in nuclear magnetons)

  Atom         1           2           3           4           5           6           7           8           9          10
 IAtWgt=          12          12          12          12          12          12          16           1          19          19
 AtmWgt=  12.0000000  12.0000000  12.0000000  12.0000000  12.0000000  12.0000000  15.9949146   1.0078250  18.9984032  18.9984032
 NucSpn=           0           0           0           0           0           0           0           1           1           1
 AtZEff=  -0.0000000  -0.0000000  -0.0000000  -0.0000000  -0.0000000  -0.0000000  -0.0000000  -0.0000000  -0.0000000  -0.0000000
 NQMom=    0.0000000   0.0000000   0.0000000   0.0000000   0.0000000   0.0000000   0.0000000   0.0000000   0.0000000   0.0000000
 NMagM=    0.0000000   0.0000000   0.0000000   0.0000000   0.0000000   0.0000000   0.0000000   2.7928460   2.6288670   2.6288670
 AtZNuc=   6.0000000   6.0000000   6.0000000   6.0000000   6.0000000   6.0000000   8.0000000   1.0000000   9.0000000   9.0000000

  Atom        11          12          13          14          15          16
 IAtWgt=          19          19          12          19          19          19
 AtmWgt=  18.9984032  18.9984032  12.0000000  18.9984032  18.9984032  18.9984032
 NucSpn=           1           1           0           1           1           1
 AtZEff=  -0.0000000  -0.0000000  -0.0000000  -0.0000000  -0.0000000  -0.0000000
 NQMom=    0.0000000   0.0000000   0.0000000   0.0000000   0.0000000   0.0000000
 NMagM=    2.6288670   2.6288670   0.0000000   2.6288670   2.6288670   2.6288670
 AtZNuc=   9.0000000   9.0000000   6.0000000   9.0000000   9.0000000   9.0000000
 Leave Link  101 at Wed Jun  5 17:16:12 2024, MaxMem=  8053063680 cpu:               3.0 elap:               0.2
 (Enter /share/apps/g16.b01_avx2/g16/l103.exe)

 GradGradGradGradGradGradGradGradGradGradGradGradGradGradGradGradGradGrad
 Berny optimization.
 Initialization pass.
                           ----------------------------
                           !    Initial Parameters    !
                           ! (Angstroms and Degrees)  !
 --------------------------                            --------------------------
 ! Name  Definition              Value          Derivative Info.                !
 --------------------------------------------------------------------------------
 ! R1    R(1,2)                  1.3849         estimate D2E/DX2                !
 ! R2    R(1,3)                  1.3849         estimate D2E/DX2                !
 ! R3    R(1,7)                  1.3522         estimate D2E/DX2                !
 ! R4    R(2,4)                  1.3809         estimate D2E/DX2                !
 ! R5    R(2,9)                  1.3233         estimate D2E/DX2                !
 ! R6    R(3,5)                  1.3809         estimate D2E/DX2                !
 ! R7    R(3,10)                 1.3233         estimate D2E/DX2                !
 ! R8    R(4,6)                  1.3884         estimate D2E/DX2                !
 ! R9    R(4,12)                 1.3242         estimate D2E/DX2                !
 ! R10   R(5,6)                  1.3884         estimate D2E/DX2                !
 ! R11   R(5,11)                 1.3242         estimate D2E/DX2                !
 ! R12   R(6,13)                 1.5044         estimate D2E/DX2                !
 ! R13   R(7,8)                  0.9663         estimate D2E/DX2                !
 ! R14   R(13,14)                1.3335         estimate D2E/DX2                !
 ! R15   R(13,15)                1.3335         estimate D2E/DX2                !
 ! R16   R(13,16)                1.3387         estimate D2E/DX2                !
 ! A1    A(2,1,3)              118.153          estimate D2E/DX2                !
 ! A2    A(2,1,7)              120.8341         estimate D2E/DX2                !
 ! A3    A(3,1,7)              120.8341         estimate D2E/DX2                !
 ! A4    A(1,2,4)              120.87           estimate D2E/DX2                !
 ! A5    A(1,2,9)              119.7283         estimate D2E/DX2                !
 ! A6    A(4,2,9)              119.4016         estimate D2E/DX2                !
 ! A7    A(1,3,5)              120.87           estimate D2E/DX2                !
 ! A8    A(1,3,10)             119.7282         estimate D2E/DX2                !
 ! A9    A(5,3,10)             119.4017         estimate D2E/DX2                !
 ! A10   A(2,4,6)              121.2955         estimate D2E/DX2                !
 ! A11   A(2,4,12)             117.5024         estimate D2E/DX2                !
 ! A12   A(6,4,12)             121.1989         estimate D2E/DX2                !
 ! A13   A(3,5,6)              121.2955         estimate D2E/DX2                !
 ! A14   A(3,5,11)             117.5024         estimate D2E/DX2                !
 ! A15   A(6,5,11)             121.1989         estimate D2E/DX2                !
 ! A16   A(4,6,5)              117.4813         estimate D2E/DX2                !
 ! A17   A(4,6,13)             121.2263         estimate D2E/DX2                !
 ! A18   A(5,6,13)             121.2263         estimate D2E/DX2                !
 ! A19   A(1,7,8)              109.5457         estimate D2E/DX2                !
 ! A20   A(6,13,14)            111.9039         estimate D2E/DX2                !
 ! A21   A(6,13,15)            111.9039         estimate D2E/DX2                !
 ! A22   A(6,13,16)            110.7444         estimate D2E/DX2                !
 ! A23   A(14,13,15)           107.2634         estimate D2E/DX2                !
 ! A24   A(14,13,16)           107.392          estimate D2E/DX2                !
 ! A25   A(15,13,16)           107.392          estimate D2E/DX2                !
 ! D1    D(3,1,2,4)             -0.8298         estimate D2E/DX2                !
 ! D2    D(3,1,2,9)            179.02           estimate D2E/DX2                !
 ! D3    D(7,1,2,4)           -176.0111         estimate D2E/DX2                !
 ! D4    D(7,1,2,9)              3.8386         estimate D2E/DX2                !
 ! D5    D(2,1,3,5)              0.8298         estimate D2E/DX2                !
 ! D6    D(2,1,3,10)          -179.0199         estimate D2E/DX2                !
 ! D7    D(7,1,3,5)            176.0111         estimate D2E/DX2                !
 ! D8    D(7,1,3,10)            -3.8386         estimate D2E/DX2                !
 ! D9    D(2,1,7,8)            -92.4741         estimate D2E/DX2                !
 ! D10   D(3,1,7,8)             92.4741         estimate D2E/DX2                !
 ! D11   D(1,2,4,6)             -0.584          estimate D2E/DX2                !
 ! D12   D(1,2,4,12)           178.7781         estimate D2E/DX2                !
 ! D13   D(9,2,4,6)            179.5657         estimate D2E/DX2                !
 ! D14   D(9,2,4,12)            -1.0722         estimate D2E/DX2                !
 ! D15   D(1,3,5,6)              0.584          estimate D2E/DX2                !
 ! D16   D(1,3,5,11)          -178.7781         estimate D2E/DX2                !
 ! D17   D(10,3,5,6)          -179.5658         estimate D2E/DX2                !
 ! D18   D(10,3,5,11)            1.0721         estimate D2E/DX2                !
 ! D19   D(2,4,6,5)              1.9474         estimate D2E/DX2                !
 ! D20   D(2,4,6,13)           179.0247         estimate D2E/DX2                !
 ! D21   D(12,4,6,5)          -177.3911         estimate D2E/DX2                !
 ! D22   D(12,4,6,13)           -0.3138         estimate D2E/DX2                !
 ! D23   D(3,5,6,4)             -1.9474         estimate D2E/DX2                !
 ! D24   D(3,5,6,13)          -179.0247         estimate D2E/DX2                !
 ! D25   D(11,5,6,4)           177.3911         estimate D2E/DX2                !
 ! D26   D(11,5,6,13)            0.3138         estimate D2E/DX2                !
 ! D27   D(4,6,13,14)           31.3038         estimate D2E/DX2                !
 ! D28   D(4,6,13,15)          151.7286         estimate D2E/DX2                !
 ! D29   D(4,6,13,16)          -88.4838         estimate D2E/DX2                !
 ! D30   D(5,6,13,14)         -151.7286         estimate D2E/DX2                !
 ! D31   D(5,6,13,15)          -31.3038         estimate D2E/DX2                !
 ! D32   D(5,6,13,16)           88.4838         estimate D2E/DX2                !
 --------------------------------------------------------------------------------
 Trust Radius=3.00D-01 FncErr=5.00D-06 GrdErr=5.00D-06 EigMax=2.50D+02 EigMin=1.00D-04
 Number of steps in this run=     83 maximum allowed number of steps=    100.
 GradGradGradGradGradGradGradGradGradGradGradGradGradGradGradGradGradGrad

 Leave Link  103 at Wed Jun  5 17:16:12 2024, MaxMem=  8053063680 cpu:               0.0 elap:               0.0
 (Enter /share/apps/g16.b01_avx2/g16/l202.exe)
                          Input orientation:                          
 ---------------------------------------------------------------------
 Center     Atomic      Atomic             Coordinates (Angstroms)
 Number     Number       Type             X           Y           Z
 ---------------------------------------------------------------------
      1          6           0        2.136019    0.000000   -0.008126
      2          6           0        1.424364    1.188029   -0.001931
      3          6           0        1.424364   -1.188029   -0.001931
      4          6           0        0.043465    1.186803   -0.007076
      5          6           0        0.043465   -1.186803   -0.007076
      6          6           0       -0.676583    0.000000   -0.030679
      7          8           0        3.485467    0.000000    0.077661
      8          1           0        3.865879    0.000000   -0.810624
      9          9           0        2.072928    2.341388    0.012078
     10          9           0        2.072929   -2.341388    0.012079
     11          9           0       -0.569183   -2.360305    0.024427
     12          9           0       -0.569184    2.360305    0.024427
     13          6           0       -2.180864    0.000000   -0.014359
     14          9           0       -2.684976    1.073783   -0.623579
     15          9           0       -2.684976   -1.073783   -0.623579
     16          9           0       -2.641427    0.000000    1.242637
 ---------------------------------------------------------------------
                    Distance matrix (angstroms):
                    1          2          3          4          5
     1  C    0.000000
     2  C    1.384884   0.000000
     3  C    1.384884   2.376058   0.000000
     4  C    2.405678   1.380909   2.747132   0.000000
     5  C    2.405678   2.747132   1.380909   2.373606   0.000000
     6  C    2.812692   2.413756   2.413756   1.388354   1.388354
     7  O    1.352172   2.380314   2.380314   3.641848   3.641848
     8  H    1.906940   2.833089   2.833089   4.082284   4.082284
     9  F    2.342325   1.323279   3.588540   2.334985   4.070285
    10  F    2.342325   3.588540   1.323280   4.070285   2.334986
    11  F    3.590295   4.070086   2.312824   3.599765   1.324174
    12  F    3.590296   2.312825   4.070086   1.324175   3.599765
    13  C    4.316887   3.795950   3.795950   2.521149   2.521149
    14  F    4.977327   4.157664   4.731693   2.799507   3.596487
    15  F    4.977327   4.731693   4.157664   3.596487   2.799507
    16  F    4.938461   4.414863   4.414863   3.190443   3.190443
                    6          7          8          9         10
     6  C    0.000000
     7  O    4.163460   0.000000
     8  H    4.608934   0.966314   0.000000
     9  F    3.611611   2.735263   3.061635   0.000000
    10  F    3.611612   2.735263   3.061635   4.682776   0.000000
    11  F    2.363390   4.691914   5.092949   5.393220   2.642209
    12  F    2.363390   4.691915   5.092949   2.642209   5.393221
    13  C    1.504370   5.667078   6.098946   4.855671   4.855672
    14  F    2.353334   6.302310   6.640911   4.964729   5.891105
    15  F    2.353334   6.302310   6.640911   5.891104   4.964730
    16  F    2.341356   6.236666   6.823556   5.405693   5.405694
                   11         12         13         14         15
    11  F    0.000000
    12  F    4.720610   0.000000
    13  C    2.858332   2.858331   0.000000
    14  F    4.085273   2.559615   1.333525   0.000000
    15  F    2.559615   4.085272   1.333525   2.147566   0.000000
    16  F    3.368868   3.368867   1.338715   2.153525   2.153525
                   16
    16  F    0.000000
 Stoichiometry    C7HF7O
 Framework group  C1[X(C7HF7O)]
 Deg. of freedom    42
 Full point group                 C1      NOp   1
 Largest Abelian subgroup         C1      NOp   1
 Largest concise Abelian subgroup C1      NOp   1
                         Standard orientation:                         
 ---------------------------------------------------------------------
 Center     Atomic      Atomic             Coordinates (Angstroms)
 Number     Number       Type             X           Y           Z
 ---------------------------------------------------------------------
      1          6           0        2.136019    0.000000   -0.008126
      2          6           0        1.424364    1.188029   -0.001931
      3          6           0        1.424364   -1.188029   -0.001931
      4          6           0        0.043465    1.186803   -0.007076
      5          6           0        0.043465   -1.186803   -0.007076
      6          6           0       -0.676583   -0.000000   -0.030679
      7          8           0        3.485467    0.000001    0.077661
      8          1           0        3.865879    0.000001   -0.810624
      9          9           0        2.072928    2.341388    0.012078
     10          9           0        2.072930   -2.341388    0.012079
     11          9           0       -0.569182   -2.360305    0.024427
     12          9           0       -0.569184    2.360305    0.024427
     13          6           0       -2.180864   -0.000000   -0.014359
     14          9           0       -2.684976    1.073782   -0.623579
     15          9           0       -2.684976   -1.073784   -0.623579
     16          9           0       -2.641427   -0.000001    1.242637
 ---------------------------------------------------------------------
 Rotational constants (GHZ):           0.8768277           0.5043363           0.3394903
 Leave Link  202 at Wed Jun  5 17:16:12 2024, MaxMem=  8053063680 cpu:               0.0 elap:               0.0
 (Enter /share/apps/g16.b01_avx2/g16/l301.exe)
 Standard basis: def2TZVP (5D, 7F)
 Ernie: Thresh=  0.10000D-02 Tol=  0.10000D-05 Strict=F.
 There are   546 symmetry adapted cartesian basis functions of A   symmetry.
 There are   471 symmetry adapted basis functions of A   symmetry.
   471 basis functions,   773 primitive gaussians,   546 cartesian basis functions
    57 alpha electrons       57 beta electrons
       nuclear repulsion energy      1110.6057726532 Hartrees.
 IExCor= 1009 DFT=T Ex+Corr=PBE1PBE ExCW=0 ScaHFX=  0.250000
 ScaDFX=  0.750000  0.750000  1.000000  1.000000 ScalE2=  1.000000  1.000000
 IRadAn=  99590 IRanWt=     -1 IRanGd=            0 ICorTp=0 IEmpDi=131
 NAtoms=   16 NActive=   16 NUniq=   16 SFac= 1.00D+00 NAtFMM=   60 NAOKFM=F Big=F
 Integral buffers will be    131072 words long.
 Raffenetti 2 integral format.
 Two-electron integral symmetry is turned on.
 R6Disp:  Grimme-D3 Dispersion energy=       -0.0082084118 Hartrees.
 Nuclear repulsion after empirical dispersion term =     1110.5975642414 Hartrees.
 ------------------------------------------------------------------------------
 Polarizable Continuum Model (PCM)
 =================================
 Model                : PCM.
 Atomic radii         : UFF (Universal Force Field).
 Polarization charges : Total charges.
 Charge compensation  : None.
 Solution method      : On-the-fly selection.
 Cavity type          : Scaled VdW (van der Waals Surface) (Alpha=1.100).
 Cavity algorithm     : GePol (No added spheres)
                        Default sphere list used, NSphG=   16.
                        Lebedev-Laikov grids with approx.  5.0 points / Ang**2.
                        Smoothing algorithm: York/Karplus (Gamma=1.0000).
                        Polarization charges: spherical gaussians, with
                                              point-specific exponents (IZeta= 3).
                        Self-potential: point-specific (ISelfS= 7).
                        Self-field    : sphere-specific E.n sum rule (ISelfD= 2).
 1st derivatives      : Analytical E(r).r(x)/FMM algorithm (CHGder, D1EAlg=3).
                        Cavity 1st derivative terms included.
 Solvent              : Water, Eps=  78.355300 Eps(inf)=   1.777849
 ------------------------------------------------------------------------------
 Spheres list:
 ISph  on   Nord     Re0    Alpha      Xe            Ye            Ze
    1   C      1    1.9255  1.100      2.136019      0.000000     -0.008126
    2   C      2    1.9255  1.100      1.424364      1.188029     -0.001931
    3   C      3    1.9255  1.100      1.424364     -1.188029     -0.001931
    4   C      4    1.9255  1.100      0.043465      1.186803     -0.007076
    5   C      5    1.9255  1.100      0.043465     -1.186803     -0.007076
    6   C      6    1.9255  1.100     -0.676583     -0.000000     -0.030679
    7   O      7    1.7500  1.100      3.485467      0.000001      0.077661
    8   H      8    1.4430  1.100      3.865879      0.000001     -0.810624
    9   F      9    1.6820  1.100      2.072928      2.341388      0.012078
   10   F     10    1.6820  1.100      2.072930     -2.341388      0.012079
   11   F     11    1.6820  1.100     -0.569182     -2.360305      0.024427
   12   F     12    1.6820  1.100     -0.569184      2.360305      0.024427
   13   C     13    1.9255  1.100     -2.180864     -0.000000     -0.014359
   14   F     14    1.6820  1.100     -2.684976      1.073782     -0.623579
   15   F     15    1.6820  1.100     -2.684976     -1.073784     -0.623579
   16   F     16    1.6820  1.100     -2.641427     -0.000001      1.242637
 ------------------------------------------------------------------------------
 GePol: Number of generator spheres                  =      16
 GePol: Total number of spheres                      =      16
 GePol: Number of exposed spheres                    =      16 (100.00%)
 GePol: Number of points                             =    1725
 GePol: Average weight of points                     =       0.13
 GePol: Minimum weight of points                     =   0.53D-06
 GePol: Maximum weight of points                     =    0.20212
 GePol: Number of points with low weight             =      67
 GePol: Fraction of low-weight points (<1% of avg)   =       3.88%
 GePol: Cavity surface area                          =    215.670 Ang**2
 GePol: Cavity volume                                =    217.220 Ang**3
 Leave Link  301 at Wed Jun  5 17:16:12 2024, MaxMem=  8053063680 cpu:               0.3 elap:               0.0
 (Enter /share/apps/g16.b01_avx2/g16/l302.exe)
 NPDir=0 NMtPBC=     1 NCelOv=     1 NCel=       1 NClECP=     1 NCelD=      1
         NCelK=      1 NCelE2=     1 NClLst=     1 CellRange=     0.0.
 One-electron integrals computed using PRISM.
 One-electron integral symmetry used in STVInt
   1 Symmetry operations used in ECPInt.
 ECPInt:  NShTT=   14365 NPrTT=   47304 LenC2=   12945 LenP2D=   30950.
 LDataN:  DoStor=T MaxTD1= 6 Len=  172
 NBasis=   471 RedAO= T EigKep=  1.36D-05  NBF=   471
 NBsUse=   471 1.00D-06 EigRej= -1.00D+00 NBFU=   471
 Precomputing XC quadrature grid using
 IXCGrd= 4 IRadAn=       99590 IRanWt=          -1 IRanGd=           0 AccXCQ= 0.00D+00.
 Generated NRdTot=       0 NPtTot=           0 NUsed=           0 NTot=          32
 NSgBfM=   540   540   540   540   540 MxSgAt=    16 MxSgA2=    16.
 Leave Link  302 at Wed Jun  5 17:16:12 2024, MaxMem=  8053063680 cpu:               2.6 elap:               0.2
 (Enter /share/apps/g16.b01_avx2/g16/l303.exe)
 DipDrv:  MaxL=1.
 Leave Link  303 at Wed Jun  5 17:16:12 2024, MaxMem=  8053063680 cpu:               0.4 elap:               0.0
 (Enter /share/apps/g16.b01_avx2/g16/l401.exe)
 ExpMin= 9.52D-02 ExpMax= 3.55D+04 ExpMxC= 1.21D+03 IAcc=4 IRadAn=    199590 AccDes= 0.00D+00
 Harris functional with IExCor= 1009 and IRadAn=  199590 diagonalized for initial guess.
 HarFok:  IExCor= 1009 AccDes= 0.00D+00 IRadAn=    199590 IDoV= 1 UseB2=F ITyADJ=14
 ICtDFT=  3500011 ScaDFX=  1.000000  1.000000  1.000000  1.000000
 FoFCou: FMM=F IPFlag=           0 FMFlag=      100000 FMFlg1=           0
         NFxFlg=           0 DoJE=T BraDBF=F KetDBF=T FulRan=T
         wScrn=  0.000000 ICntrl=       500 IOpCl=  0 I1Cent=   200000004 NGrid=           0
         NMat0=    1 NMatS0=      1 NMatT0=    0 NMatD0=    1 NMtDS0=    0 NMtDT0=    0
 Petite list used in FoFCou.
 Harris En= -1040.86169382693    
 JPrj=0 DoOrth=F DoCkMO=F.
 Leave Link  401 at Wed Jun  5 17:16:14 2024, MaxMem=  8053063680 cpu:              27.1 elap:               1.7
 (Enter /share/apps/g16.b01_avx2/g16/l502.exe)
 Integral symmetry usage will be decided dynamically.
 Closed shell SCF:
 Using DIIS extrapolation, IDIIS=  1040.
 NGot=  8053063680 LenX=  8052454134 LenY=  8052155472
 Requested convergence on RMS density matrix=1.00D-08 within 128 cycles.
 Requested convergence on MAX density matrix=1.00D-06.
 Requested convergence on             energy=1.00D-06.
 No special actions if energy rises.
 Fock matrices will be formed incrementally for  20 cycles.

 Cycle   1  Pass 1  IDiag  1:
 FoFJK:  IHMeth= 1 ICntrl=       0 DoSepK=F KAlg= 0 I1Cent=           0 FoldK=F
 IRaf= 850000000 NMat=       1 IRICut=       1 DoRegI=T DoRafI=F ISym2E= 0 IDoP0=0 IntGTp=1.
 FoFCou: FMM=F IPFlag=           0 FMFlag=      100000 FMFlg1=           0
         NFxFlg=           0 DoJE=F BraDBF=F KetDBF=F FulRan=T
         wScrn=  0.000000 ICntrl=         0 IOpCl=  0 I1Cent=           0 NGrid=           0
         NMat0=    1 NMatS0=      1 NMatT0=    0 NMatD0=    1 NMtDS0=    0 NMtDT0=    0
 Symmetry not used in FoFCou.
 Inv3:  Mode=1 IEnd=     8926875.
 Iteration    1 A*A^-1 deviation from unit magnitude is 3.00D-15 for     82.
 Iteration    1 A*A^-1 deviation from orthogonality  is 1.66D-15 for    866    546.
 Iteration    1 A^-1*A deviation from unit magnitude is 2.66D-15 for    190.
 Iteration    1 A^-1*A deviation from orthogonality  is 1.55D-15 for   1450    988.
 E= -1040.70897338194    
 DIIS: error= 1.44D-02 at cycle   1 NSaved=   1.
 NSaved= 1 IEnMin= 1 EnMin= -1040.70897338194     IErMin= 1 ErrMin= 1.44D-02
 ErrMax= 1.44D-02  0.00D+00 EMaxC= 1.00D-01 BMatC= 2.37D-01 BMatP= 2.37D-01
 IDIUse=3 WtCom= 8.56D-01 WtEn= 1.44D-01
 Coeff-Com:  0.100D+01
 Coeff-En:   0.100D+01
 Coeff:      0.100D+01
 Gap=     0.245 Goal=   None    Shift=    0.000
 GapD=    0.245 DampG=1.000 DampE=0.500 DampFc=0.5000 IDamp=-1.
 Damping current iteration by 5.00D-01
 RMSDP=2.33D-03 MaxDP=1.55D-01              OVMax= 1.04D-01

 Cycle   2  Pass 1  IDiag  1:
 RMSU=  1.17D-03    CP:  1.00D+00
 E= -1040.77024165191     Delta-E=       -0.061268269970 Rises=F Damp=T
 DIIS: error= 4.74D-03 at cycle   2 NSaved=   2.
 NSaved= 2 IEnMin= 2 EnMin= -1040.77024165191     IErMin= 2 ErrMin= 4.74D-03
 ErrMax= 4.74D-03  0.00D+00 EMaxC= 1.00D-01 BMatC= 1.93D-02 BMatP= 2.37D-01
 IDIUse=3 WtCom= 9.53D-01 WtEn= 4.74D-02
 Coeff-Com:  0.197D-01 0.980D+00
 Coeff-En:   0.924D-01 0.908D+00
 Coeff:      0.232D-01 0.977D+00
 Gap=     0.256 Goal=   None    Shift=    0.000
 RMSDP=8.27D-04 MaxDP=6.96D-02 DE=-6.13D-02 OVMax= 6.71D-02

 Cycle   3  Pass 1  IDiag  1:
 RMSU=  6.92D-04    CP:  9.84D-01  6.42D-01
 E= -1040.84252159015     Delta-E=       -0.072279938233 Rises=F Damp=F
 DIIS: error= 3.62D-03 at cycle   3 NSaved=   3.
 NSaved= 3 IEnMin= 3 EnMin= -1040.84252159015     IErMin= 3 ErrMin= 3.62D-03
 ErrMax= 3.62D-03  0.00D+00 EMaxC= 1.00D-01 BMatC= 8.74D-03 BMatP= 1.93D-02
 IDIUse=3 WtCom= 9.64D-01 WtEn= 3.62D-02
 Coeff-Com: -0.800D-01 0.391D+00 0.689D+00
 Coeff-En:   0.000D+00 0.000D+00 0.100D+01
 Coeff:     -0.771D-01 0.377D+00 0.700D+00
 Gap=     0.230 Goal=   None    Shift=    0.000
 RMSDP=2.82D-04 MaxDP=1.46D-02 DE=-7.23D-02 OVMax= 2.36D-02

 Cycle   4  Pass 1  IDiag  1:
 RMSU=  2.50D-04    CP:  9.80D-01  7.50D-01  1.00D+00
 E= -1040.84734557497     Delta-E=       -0.004823984824 Rises=F Damp=F
 DIIS: error= 9.74D-04 at cycle   4 NSaved=   4.
 NSaved= 4 IEnMin= 4 EnMin= -1040.84734557497     IErMin= 4 ErrMin= 9.74D-04
 ErrMax= 9.74D-04  0.00D+00 EMaxC= 1.00D-01 BMatC= 1.15D-03 BMatP= 8.74D-03
 IDIUse=3 WtCom= 9.90D-01 WtEn= 9.74D-03
 Coeff-Com: -0.369D-01 0.101D+00 0.337D+00 0.599D+00
 Coeff-En:   0.000D+00 0.000D+00 0.799D-01 0.920D+00
 Coeff:     -0.365D-01 0.998D-01 0.335D+00 0.602D+00
 Gap=     0.230 Goal=   None    Shift=    0.000
 RMSDP=8.94D-05 MaxDP=4.35D-03 DE=-4.82D-03 OVMax= 1.31D-02

 Cycle   5  Pass 1  IDiag  1:
 RMSU=  3.80D-05    CP:  9.80D-01  7.19D-01  1.03D+00  7.19D-01
 E= -1040.84822515048     Delta-E=       -0.000879575511 Rises=F Damp=F
 DIIS: error= 3.57D-04 at cycle   5 NSaved=   5.
 NSaved= 5 IEnMin= 5 EnMin= -1040.84822515048     IErMin= 5 ErrMin= 3.57D-04
 ErrMax= 3.57D-04  0.00D+00 EMaxC= 1.00D-01 BMatC= 8.22D-05 BMatP= 1.15D-03
 IDIUse=3 WtCom= 9.96D-01 WtEn= 3.57D-03
 Coeff-Com: -0.155D-01 0.340D-01 0.140D+00 0.310D+00 0.532D+00
 Coeff-En:   0.000D+00 0.000D+00 0.000D+00 0.000D+00 0.100D+01
 Coeff:     -0.154D-01 0.339D-01 0.139D+00 0.309D+00 0.533D+00
 Gap=     0.230 Goal=   None    Shift=    0.000
 RMSDP=2.58D-05 MaxDP=1.61D-03 DE=-8.80D-04 OVMax= 4.23D-03

 Cycle   6  Pass 1  IDiag  1:
 RMSU=  1.21D-05    CP:  9.81D-01  7.29D-01  1.02D+00  6.97D-01  5.66D-01
 E= -1040.84829176174     Delta-E=       -0.000066611263 Rises=F Damp=F
 DIIS: error= 9.50D-05 at cycle   6 NSaved=   6.
 NSaved= 6 IEnMin= 6 EnMin= -1040.84829176174     IErMin= 6 ErrMin= 9.50D-05
 ErrMax= 9.50D-05  0.00D+00 EMaxC= 1.00D-01 BMatC= 5.68D-06 BMatP= 8.22D-05
 IDIUse=1 WtCom= 1.00D+00 WtEn= 0.00D+00
 Coeff-Com: -0.472D-02 0.870D-02 0.413D-01 0.107D+00 0.264D+00 0.583D+00
 Coeff:     -0.472D-02 0.870D-02 0.413D-01 0.107D+00 0.264D+00 0.583D+00
 Gap=     0.230 Goal=   None    Shift=    0.000
 RMSDP=6.48D-06 MaxDP=3.26D-04 DE=-6.66D-05 OVMax= 8.65D-04

 Cycle   7  Pass 1  IDiag  1:
 RMSU=  3.44D-06    CP:  9.81D-01  7.28D-01  1.02D+00  7.05D-01  6.45D-01
                    CP:  6.95D-01
 E= -1040.84829588592     Delta-E=       -0.000004124180 Rises=F Damp=F
 DIIS: error= 3.01D-05 at cycle   7 NSaved=   7.
 NSaved= 7 IEnMin= 7 EnMin= -1040.84829588592     IErMin= 7 ErrMin= 3.01D-05
 ErrMax= 3.01D-05  0.00D+00 EMaxC= 1.00D-01 BMatC= 3.97D-07 BMatP= 5.68D-06
 IDIUse=1 WtCom= 1.00D+00 WtEn= 0.00D+00
 Coeff-Com: -0.137D-02 0.212D-02 0.106D-01 0.311D-01 0.869D-01 0.277D+00
 Coeff-Com:  0.594D+00
 Coeff:     -0.137D-02 0.212D-02 0.106D-01 0.311D-01 0.869D-01 0.277D+00
 Coeff:      0.594D+00
 Gap=     0.230 Goal=   None    Shift=    0.000
 RMSDP=1.58D-06 MaxDP=7.26D-05 DE=-4.12D-06 OVMax= 1.97D-04

 Cycle   8  Pass 1  IDiag  1:
 RMSU=  9.14D-07    CP:  9.81D-01  7.28D-01  1.02D+00  7.04D-01  6.39D-01
                    CP:  7.62D-01  8.31D-01
 E= -1040.84829618628     Delta-E=       -0.000000300352 Rises=F Damp=F
 DIIS: error= 6.28D-06 at cycle   8 NSaved=   8.
 NSaved= 8 IEnMin= 8 EnMin= -1040.84829618628     IErMin= 8 ErrMin= 6.28D-06
 ErrMax= 6.28D-06  0.00D+00 EMaxC= 1.00D-01 BMatC= 3.02D-08 BMatP= 3.97D-07
 IDIUse=1 WtCom= 1.00D+00 WtEn= 0.00D+00
 Coeff-Com: -0.801D-04-0.372D-04-0.225D-03 0.115D-02 0.586D-02 0.497D-01
 Coeff-Com:  0.246D+00 0.697D+00
 Coeff:     -0.801D-04-0.372D-04-0.225D-03 0.115D-02 0.586D-02 0.497D-01
 Coeff:      0.246D+00 0.697D+00
 Gap=     0.230 Goal=   None    Shift=    0.000
 RMSDP=4.22D-07 MaxDP=1.74D-05 DE=-3.00D-07 OVMax= 3.41D-05

 Cycle   9  Pass 1  IDiag  1:
 RMSU=  2.95D-07    CP:  9.81D-01  7.28D-01  1.02D+00  7.04D-01  6.38D-01
                    CP:  7.74D-01  8.42D-01  8.67D-01
 E= -1040.84829620484     Delta-E=       -0.000000018561 Rises=F Damp=F
 DIIS: error= 2.27D-06 at cycle   9 NSaved=   9.
 NSaved= 9 IEnMin= 9 EnMin= -1040.84829620484     IErMin= 9 ErrMin= 2.27D-06
 ErrMax= 2.27D-06  0.00D+00 EMaxC= 1.00D-01 BMatC= 3.72D-09 BMatP= 3.02D-08
 IDIUse=1 WtCom= 1.00D+00 WtEn= 0.00D+00
 Coeff-Com:  0.504D-04-0.139D-03-0.757D-03-0.152D-02-0.337D-02 0.144D-02
 Coeff-Com:  0.677D-01 0.332D+00 0.604D+00
 Coeff:      0.504D-04-0.139D-03-0.757D-03-0.152D-02-0.337D-02 0.144D-02
 Coeff:      0.677D-01 0.332D+00 0.604D+00
 Gap=     0.230 Goal=   None    Shift=    0.000
 RMSDP=1.65D-07 MaxDP=8.67D-06 DE=-1.86D-08 OVMax= 8.64D-06

 Cycle  10  Pass 1  IDiag  1:
 RMSU=  6.08D-08    CP:  9.81D-01  7.28D-01  1.02D+00  7.04D-01  6.39D-01
                    CP:  7.75D-01  8.62D-01  9.08D-01  7.10D-01
 E= -1040.84829620712     Delta-E=       -0.000000002281 Rises=F Damp=F
 DIIS: error= 3.81D-07 at cycle  10 NSaved=  10.
 NSaved=10 IEnMin=10 EnMin= -1040.84829620712     IErMin=10 ErrMin= 3.81D-07
 ErrMax= 3.81D-07  0.00D+00 EMaxC= 1.00D-01 BMatC= 1.36D-10 BMatP= 3.72D-09
 IDIUse=1 WtCom= 1.00D+00 WtEn= 0.00D+00
 Coeff-Com:  0.249D-04-0.609D-04-0.331D-03-0.743D-03-0.175D-02-0.111D-02
 Coeff-Com:  0.219D-01 0.119D+00 0.261D+00 0.602D+00
 Coeff:      0.249D-04-0.609D-04-0.331D-03-0.743D-03-0.175D-02-0.111D-02
 Coeff:      0.219D-01 0.119D+00 0.261D+00 0.602D+00
 Gap=     0.230 Goal=   None    Shift=    0.000
 RMSDP=3.21D-08 MaxDP=1.87D-06 DE=-2.28D-09 OVMax= 3.48D-06

 Cycle  11  Pass 1  IDiag  1:
 RMSU=  2.04D-08    CP:  9.81D-01  7.28D-01  1.02D+00  7.04D-01  6.39D-01
                    CP:  7.75D-01  8.65D-01  9.16D-01  7.24D-01  8.11D-01
 E= -1040.84829620720     Delta-E=       -0.000000000078 Rises=F Damp=F
 DIIS: error= 1.80D-07 at cycle  11 NSaved=  11.
 NSaved=11 IEnMin=11 EnMin= -1040.84829620720     IErMin=11 ErrMin= 1.80D-07
 ErrMax= 1.80D-07  0.00D+00 EMaxC= 1.00D-01 BMatC= 2.73D-11 BMatP= 1.36D-10
 IDIUse=1 WtCom= 1.00D+00 WtEn= 0.00D+00
 Coeff-Com:  0.262D-05-0.389D-05-0.126D-04-0.469D-04-0.143D-03-0.814D-03
 Coeff-Com: -0.248D-02-0.707D-02 0.113D-01 0.320D+00 0.679D+00
 Coeff:      0.262D-05-0.389D-05-0.126D-04-0.469D-04-0.143D-03-0.814D-03
 Coeff:     -0.248D-02-0.707D-02 0.113D-01 0.320D+00 0.679D+00
 Gap=     0.230 Goal=   None    Shift=    0.000
 RMSDP=1.11D-08 MaxDP=5.13D-07 DE=-7.78D-11 OVMax= 1.46D-06

 Cycle  12  Pass 1  IDiag  1:
 RMSU=  4.64D-09    CP:  9.81D-01  7.28D-01  1.02D+00  7.04D-01  6.39D-01
                    CP:  7.75D-01  8.64D-01  9.17D-01  7.32D-01  8.79D-01
                    CP:  7.35D-01
 E= -1040.84829620723     Delta-E=       -0.000000000035 Rises=F Damp=F
 DIIS: error= 3.24D-08 at cycle  12 NSaved=  12.
 NSaved=12 IEnMin=12 EnMin= -1040.84829620723     IErMin=12 ErrMin= 3.24D-08
 ErrMax= 3.24D-08  0.00D+00 EMaxC= 1.00D-01 BMatC= 6.17D-13 BMatP= 2.73D-11
 IDIUse=1 WtCom= 1.00D+00 WtEn= 0.00D+00
 Coeff-Com:  0.715D-06-0.491D-06 0.423D-06-0.837D-05-0.329D-04-0.330D-03
 Coeff-Com: -0.151D-02-0.606D-02-0.288D-02 0.105D+00 0.266D+00 0.641D+00
 Coeff:      0.715D-06-0.491D-06 0.423D-06-0.837D-05-0.329D-04-0.330D-03
 Coeff:     -0.151D-02-0.606D-02-0.288D-02 0.105D+00 0.266D+00 0.641D+00
 Gap=     0.230 Goal=   None    Shift=    0.000
 RMSDP=3.18D-09 MaxDP=1.89D-07 DE=-3.50D-11 OVMax= 2.61D-07

 Error on total polarization charges =  0.00611
 SCF Done:  E(RPBE1PBE) =  -1040.84829621     A.U. after   12 cycles
            NFock= 12  Conv=0.32D-08     -V/T= 2.0034
 KE= 1.037349456947D+03 PE=-4.686254563499D+03 EE= 1.497459246103D+03
 Leave Link  502 at Wed Jun  5 17:16:58 2024, MaxMem=  8053063680 cpu:             698.9 elap:              43.9
 (Enter /share/apps/g16.b01_avx2/g16/l601.exe)
 Copying SCF densities to generalized density rwf, IOpCl= 0 IROHF=0.

 **********************************************************************

            Population analysis using the SCF Density.

 **********************************************************************

 Orbital symmetries:
       Occupied  (A) (A) (A) (A) (A) (A) (A) (A) (A) (A) (A) (A)
                 (A) (A) (A) (A) (A) (A) (A) (A) (A) (A) (A) (A)
                 (A) (A) (A) (A) (A) (A) (A) (A) (A) (A) (A) (A)
                 (A) (A) (A) (A) (A) (A) (A) (A) (A) (A) (A) (A)
                 (A) (A) (A) (A) (A) (A) (A) (A) (A)
       Virtual   (A) (A) (A) (A) (A) (A) (A) (A) (A) (A) (A) (A)
                 (A) (A) (A) (A) (A) (A) (A) (A) (A) (A) (A) (A)
                 (A) (A) (A) (A) (A) (A) (A) (A) (A) (A) (A) (A)
                 (A) (A) (A) (A) (A) (A) (A) (A) (A) (A) (A) (A)
                 (A) (A) (A) (A) (A) (A) (A) (A) (A) (A) (A) (A)
                 (A) (A) (A) (A) (A) (A) (A) (A) (A) (A) (A) (A)
                 (A) (A) (A) (A) (A) (A) (A) (A) (A) (A) (A) (A)
                 (A) (A) (A) (A) (A) (A) (A) (A) (A) (A) (A) (A)
                 (A) (A) (A) (A) (A) (A) (A) (A) (A) (A) (A) (A)
                 (A) (A) (A) (A) (A) (A) (A) (A) (A) (A) (A) (A)
                 (A) (A) (A) (A) (A) (A) (A) (A) (A) (A) (A) (A)
                 (A) (A) (A) (A) (A) (A) (A) (A) (A) (A) (A) (A)
                 (A) (A) (A) (A) (A) (A) (A) (A) (A) (A) (A) (A)
                 (A) (A) (A) (A) (A) (A) (A) (A) (A) (A) (A) (A)
                 (A) (A) (A) (A) (A) (A) (A) (A) (A) (A) (A) (A)
                 (A) (A) (A) (A) (A) (A) (A) (A) (A) (A) (A) (A)
                 (A) (A) (A) (A) (A) (A) (A) (A) (A) (A) (A) (A)
                 (A) (A) (A) (A) (A) (A) (A) (A) (A) (A) (A) (A)
                 (A) (A) (A) (A) (A) (A) (A) (A) (A) (A) (A) (A)
                 (A) (A) (A) (A) (A) (A) (A) (A) (A) (A) (A) (A)
                 (A) (A) (A) (A) (A) (A) (A) (A) (A) (A) (A) (A)
                 (A) (A) (A) (A) (A) (A) (A) (A) (A) (A) (A) (A)
                 (A) (A) (A) (A) (A) (A) (A) (A) (A) (A) (A) (A)
                 (A) (A) (A) (A) (A) (A) (A) (A) (A) (A) (A) (A)
                 (A) (A) (A) (A) (A) (A) (A) (A) (A) (A) (A) (A)
                 (A) (A) (A) (A) (A) (A) (A) (A) (A) (A) (A) (A)
                 (A) (A) (A) (A) (A) (A) (A) (A) (A) (A) (A) (A)
                 (A) (A) (A) (A) (A) (A) (A) (A) (A) (A) (A) (A)
                 (A) (A) (A) (A) (A) (A) (A) (A) (A) (A) (A) (A)
                 (A) (A) (A) (A) (A) (A) (A) (A) (A) (A) (A) (A)
                 (A) (A) (A) (A) (A) (A) (A) (A) (A) (A) (A) (A)
                 (A) (A) (A) (A) (A) (A) (A) (A) (A) (A) (A) (A)
                 (A) (A) (A) (A) (A) (A) (A) (A) (A) (A) (A) (A)
                 (A) (A) (A) (A) (A) (A) (A) (A) (A) (A) (A) (A)
                 (A) (A) (A) (A) (A) (A)
 The electronic state is 1-A.
 Alpha  occ. eigenvalues --  -24.81887 -24.81887 -24.81854 -24.81854 -24.81679
 Alpha  occ. eigenvalues --  -24.81647 -24.81647 -19.25839 -10.49751 -10.35336
 Alpha  occ. eigenvalues --  -10.35335 -10.34109 -10.34109 -10.32720 -10.28784
 Alpha  occ. eigenvalues --   -1.37131  -1.31003  -1.30979  -1.29416  -1.29413
 Alpha  occ. eigenvalues --   -1.27801  -1.27666  -1.11916  -0.94158  -0.84437
 Alpha  occ. eigenvalues --   -0.81419  -0.75527  -0.70374  -0.69798  -0.64336
 Alpha  occ. eigenvalues --   -0.64233  -0.63397  -0.62577  -0.61311  -0.59174
 Alpha  occ. eigenvalues --   -0.57849  -0.57449  -0.55052  -0.54785  -0.53354
 Alpha  occ. eigenvalues --   -0.51497  -0.50728  -0.50652  -0.50094  -0.47812
 Alpha  occ. eigenvalues --   -0.47497  -0.46660  -0.46430  -0.45617  -0.45112
 Alpha  occ. eigenvalues --   -0.44363  -0.42820  -0.40892  -0.38625  -0.35690
 Alpha  occ. eigenvalues --   -0.29525  -0.27738
 Alpha virt. eigenvalues --   -0.04726  -0.01869  -0.00246   0.05937   0.06835
 Alpha virt. eigenvalues --    0.11140   0.12412   0.13250   0.13663   0.15577
 Alpha virt. eigenvalues --    0.17701   0.17911   0.19340   0.20719   0.20765
 Alpha virt. eigenvalues --    0.22263   0.22782   0.24848   0.24909   0.25315
 Alpha virt. eigenvalues --    0.26710   0.27051   0.28834   0.29334   0.29927
 Alpha virt. eigenvalues --    0.31181   0.31804   0.31905   0.34057   0.35506
 Alpha virt. eigenvalues --    0.37488   0.37826   0.39661   0.39989   0.40190
 Alpha virt. eigenvalues --    0.40921   0.42335   0.42710   0.43876   0.45222
 Alpha virt. eigenvalues --    0.46005   0.46213   0.48820   0.49907   0.50150
 Alpha virt. eigenvalues --    0.50937   0.52947   0.55268   0.55897   0.55935
 Alpha virt. eigenvalues --    0.56916   0.61962   0.62713   0.63576   0.64011
 Alpha virt. eigenvalues --    0.65248   0.66660   0.67606   0.68493   0.69094
 Alpha virt. eigenvalues --    0.70779   0.70842   0.73702   0.75247   0.75704
 Alpha virt. eigenvalues --    0.76819   0.77504   0.78854   0.79737   0.80062
 Alpha virt. eigenvalues --    0.82287   0.82980   0.83420   0.83795   0.85012
 Alpha virt. eigenvalues --    0.85434   0.86814   0.87714   0.88701   0.92118
 Alpha virt. eigenvalues --    0.92823   0.94040   0.94437   0.94664   0.96517
 Alpha virt. eigenvalues --    0.96869   1.00078   1.00514   1.01910   1.03633
 Alpha virt. eigenvalues --    1.06619   1.07970   1.09193   1.09786   1.10329
 Alpha virt. eigenvalues --    1.12543   1.16485   1.19403   1.19854   1.21270
 Alpha virt. eigenvalues --    1.24502   1.24949   1.25304   1.26427   1.31646
 Alpha virt. eigenvalues --    1.33207   1.34141   1.35108   1.38968   1.41472
 Alpha virt. eigenvalues --    1.42209   1.44083   1.46798   1.49366   1.49466
 Alpha virt. eigenvalues --    1.51293   1.54637   1.56486   1.61050   1.61323
 Alpha virt. eigenvalues --    1.66869   1.67223   1.71733   1.72810   1.73495
 Alpha virt. eigenvalues --    1.73794   1.76766   1.78930   1.82834   1.83511
 Alpha virt. eigenvalues --    1.85330   1.86910   1.88444   1.93065   1.94380
 Alpha virt. eigenvalues --    1.96015   1.96386   1.96667   1.97552   1.98175
 Alpha virt. eigenvalues --    2.01496   2.04957   2.06269   2.07162   2.08660
 Alpha virt. eigenvalues --    2.10603   2.11900   2.13541   2.13658   2.14447
 Alpha virt. eigenvalues --    2.15314   2.17770   2.19291   2.22973   2.25337
 Alpha virt. eigenvalues --    2.25586   2.26954   2.29779   2.29969   2.34743
 Alpha virt. eigenvalues --    2.34968   2.35375   2.36384   2.40223   2.41925
 Alpha virt. eigenvalues --    2.45123   2.47787   2.48495   2.48624   2.51378
 Alpha virt. eigenvalues --    2.52417   2.53826   2.54278   2.56091   2.57039
 Alpha virt. eigenvalues --    2.62678   2.62845   2.64756   2.65172   2.68112
 Alpha virt. eigenvalues --    2.70462   2.74031   2.75307   2.77743   2.78360
 Alpha virt. eigenvalues --    2.79688   2.79949   2.83078   2.83290   2.85474
 Alpha virt. eigenvalues --    2.86296   2.89293   2.89452   2.89968   2.90184
 Alpha virt. eigenvalues --    2.92660   2.92803   2.93912   2.95577   2.95726
 Alpha virt. eigenvalues --    2.99147   3.00251   3.00463   3.00644   3.01884
 Alpha virt. eigenvalues --    3.04196   3.04690   3.09729   3.10454   3.12596
 Alpha virt. eigenvalues --    3.12668   3.13335   3.16235   3.17852   3.18675
 Alpha virt. eigenvalues --    3.19649   3.21274   3.22570   3.23356   3.23828
 Alpha virt. eigenvalues --    3.25548   3.25810   3.28148   3.30313   3.33220
 Alpha virt. eigenvalues --    3.36138   3.36627   3.36868   3.37758   3.40211
 Alpha virt. eigenvalues --    3.42188   3.42703   3.44598   3.45621   3.48117
 Alpha virt. eigenvalues --    3.49437   3.49492   3.52264   3.53822   3.55006
 Alpha virt. eigenvalues --    3.57152   3.60801   3.62945   3.63640   3.67815
 Alpha virt. eigenvalues --    3.69198   3.73276   3.73286   3.74223   3.77001
 Alpha virt. eigenvalues --    3.82233   3.83126   3.85135   3.87921   3.89297
 Alpha virt. eigenvalues --    3.92044   3.94498   3.96503   3.97206   3.97844
 Alpha virt. eigenvalues --    3.98848   4.01243   4.03826   4.05338   4.06414
 Alpha virt. eigenvalues --    4.06645   4.11228   4.13001   4.15666   4.16827
 Alpha virt. eigenvalues --    4.18070   4.19918   4.20409   4.23035   4.23494
 Alpha virt. eigenvalues --    4.33519   4.35280   4.36766   4.36856   4.39172
 Alpha virt. eigenvalues --    4.44073   4.46550   4.57141   4.59684   4.60637
 Alpha virt. eigenvalues --    4.65855   4.71597   4.81503   4.87262   4.89972
 Alpha virt. eigenvalues --    4.91184   4.94941   4.98600   5.11564   5.21967
 Alpha virt. eigenvalues --    5.24133   5.30155   5.35123   5.40997   5.42886
 Alpha virt. eigenvalues --    5.45725   5.48286   5.51976   5.54190   5.62191
 Alpha virt. eigenvalues --    5.81201   5.85760   6.07607   6.30056   6.34579
 Alpha virt. eigenvalues --    6.42913   6.69700   6.79706   6.84103   6.84198
 Alpha virt. eigenvalues --    6.84367   6.84848   6.84872   6.85316   6.85325
 Alpha virt. eigenvalues --    6.85384   6.85641   6.85648   6.86219   6.86499
 Alpha virt. eigenvalues --    6.86766   6.86956   6.87189   6.87766   6.93823
 Alpha virt. eigenvalues --    6.93988   6.97064   6.97392   6.97727   6.98965
 Alpha virt. eigenvalues --    6.99371   7.00866   7.01269   7.02604   7.04665
 Alpha virt. eigenvalues --    7.06658   7.07715   7.12642   7.13566   7.14889
 Alpha virt. eigenvalues --    7.17552   7.19311   7.20421   7.29759   7.32536
 Alpha virt. eigenvalues --    7.33323   7.34898   7.37310   7.39304   7.40786
 Alpha virt. eigenvalues --    7.47770   7.50141   7.53505   7.55714   7.56647
 Alpha virt. eigenvalues --    7.62310   7.62651   7.77553   7.99453   8.30090
 Alpha virt. eigenvalues --    8.31310   8.32880   8.32949   8.33646   8.36571
 Alpha virt. eigenvalues --    8.40561   8.47266   8.48005   8.48589   8.54405
 Alpha virt. eigenvalues --    8.56980   8.57314   8.70621   8.70730   8.72757
 Alpha virt. eigenvalues --    8.72931   8.77880   8.79265   8.80799   8.84414
 Alpha virt. eigenvalues --    8.88170   8.89218   8.90161   8.94664   8.98814
 Alpha virt. eigenvalues --    9.00063   9.00934   9.00963   9.02824   9.04379
 Alpha virt. eigenvalues --    9.10518   9.13691   9.15014   9.30390  22.24202
 Alpha virt. eigenvalues --   22.92604  23.03813  23.07054  23.16562  23.17326
 Alpha virt. eigenvalues --   23.78153  44.06593  57.23072  57.31100  57.34135
 Alpha virt. eigenvalues --   57.39861  57.40578  57.55280  57.61555
          Condensed to atoms (all electrons):
               1          2          3          4          5          6
     1  C    5.229644   0.258267   0.258268  -0.007631  -0.007631  -0.024871
     2  C    0.258267   5.094569  -0.033760   0.315522  -0.008109  -0.002890
     3  C    0.258268  -0.033760   5.094568  -0.008109   0.315523  -0.002891
     4  C   -0.007631   0.315522  -0.008109   5.124143  -0.070620   0.212893
     5  C   -0.007631  -0.008109   0.315523  -0.070620   5.124141   0.212893
     6  C   -0.024871  -0.002890  -0.002891   0.212893   0.212893   5.757837
     7  O    0.349655  -0.055895  -0.055895   0.002395   0.002395  -0.001188
     8  H   -0.034350  -0.013859  -0.013859   0.002308   0.002308  -0.001118
     9  F   -0.058710   0.311811   0.004358  -0.052558  -0.000594   0.009975
    10  F   -0.058710   0.004358   0.311811  -0.000594  -0.052558   0.009975
    11  F    0.008752  -0.001685  -0.048256   0.002350   0.311807  -0.072313
    12  F    0.008752  -0.048256  -0.001685   0.311807   0.002350  -0.072313
    13  C   -0.007563   0.012651   0.012651  -0.039198  -0.039198   0.322768
    14  F    0.000195   0.000293  -0.000523   0.007369   0.003238  -0.080993
    15  F    0.000195  -0.000523   0.000293   0.003238   0.007369  -0.080993
    16  F    0.000493  -0.000739  -0.000739   0.013831   0.013831  -0.108082
               7          8          9         10         11         12
     1  C    0.349655  -0.034350  -0.058710  -0.058710   0.008752   0.008752
     2  C   -0.055895  -0.013859   0.311811   0.004358  -0.001685  -0.048256
     3  C   -0.055895  -0.013859   0.004358   0.311811  -0.048256  -0.001685
     4  C    0.002395   0.002308  -0.052558  -0.000594   0.002350   0.311807
     5  C    0.002395   0.002308  -0.000594  -0.052558   0.311807   0.002350
     6  C   -0.001188  -0.001118   0.009975   0.009975  -0.072313  -0.072313
     7  O    7.877343   0.313506  -0.000565  -0.000565  -0.000059  -0.000059
     8  H    0.313506   0.365399   0.000834   0.000834   0.000006   0.000006
     9  F   -0.000565   0.000834   8.953468  -0.000029   0.000000   0.000351
    10  F   -0.000565   0.000834  -0.000029   8.953468   0.000351   0.000000
    11  F   -0.000059   0.000006   0.000000   0.000351   8.956980  -0.000027
    12  F   -0.000059   0.000006   0.000351   0.000000  -0.000027   8.956980
    13  C   -0.000003  -0.000026  -0.000073  -0.000073   0.013702   0.013702
    14  F   -0.000000  -0.000000   0.000001   0.000000  -0.000081  -0.007481
    15  F   -0.000000  -0.000000   0.000000   0.000001  -0.007481  -0.000081
    16  F    0.000000   0.000000   0.000001   0.000001  -0.000189  -0.000189
              13         14         15         16
     1  C   -0.007563   0.000195   0.000195   0.000493
     2  C    0.012651   0.000293  -0.000523  -0.000739
     3  C    0.012651  -0.000523   0.000293  -0.000739
     4  C   -0.039198   0.007369   0.003238   0.013831
     5  C   -0.039198   0.003238   0.007369   0.013831
     6  C    0.322768  -0.080993  -0.080993  -0.108082
     7  O   -0.000003  -0.000000  -0.000000   0.000000
     8  H   -0.000026  -0.000000  -0.000000   0.000000
     9  F   -0.000073   0.000001   0.000000   0.000001
    10  F   -0.000073   0.000000   0.000001   0.000001
    11  F    0.013702  -0.000081  -0.007481  -0.000189
    12  F    0.013702  -0.007481  -0.000081  -0.000189
    13  C    4.107581   0.378395   0.378395   0.376725
    14  F    0.378395   8.959099  -0.051884  -0.054816
    15  F    0.378395  -0.051884   8.959099  -0.054816
    16  F    0.376725  -0.054816  -0.054816   8.970070
 Mulliken charges:
               1
     1  C    0.085243
     2  C    0.168244
     3  C    0.168244
     4  C    0.182854
     5  C    0.182854
     6  C   -0.078686
     7  O   -0.431066
     8  H    0.378011
     9  F   -0.168270
    10  F   -0.168271
    11  F   -0.163858
    12  F   -0.163858
    13  C    0.469564
    14  F   -0.152811
    15  F   -0.152811
    16  F   -0.155383
 Sum of Mulliken charges =  -0.00000
 Mulliken charges with hydrogens summed into heavy atoms:
               1
     1  C    0.085243
     2  C    0.168244
     3  C    0.168244
     4  C    0.182854
     5  C    0.182854
     6  C   -0.078686
     7  O   -0.053056
     9  F   -0.168270
    10  F   -0.168271
    11  F   -0.163858
    12  F   -0.163858
    13  C    0.469564
    14  F   -0.152811
    15  F   -0.152811
    16  F   -0.155383
 Electronic spatial extent (au):  <R**2>=           2843.9812
 Charge=             -0.0000 electrons
 Dipole moment (field-independent basis, Debye):
    X=              2.8739    Y=              0.0000    Z=             -1.8964  Tot=              3.4432
 Quadrupole moment (field-independent basis, Debye-Ang):
   XX=            -78.8208   YY=            -86.9045   ZZ=            -76.0036
   XY=              0.0000   XZ=             -7.1711   YZ=             -0.0000
 Traceless Quadrupole moment (field-independent basis, Debye-Ang):
   XX=              1.7555   YY=             -6.3282   ZZ=              4.5727
   XY=              0.0000   XZ=             -7.1711   YZ=             -0.0000
 Octapole moment (field-independent basis, Debye-Ang**2):
  XXX=             14.7915  YYY=             -0.0000  ZZZ=             -2.4608  XYY=            -12.5206
  XXY=              0.0000  XXZ=            -29.4144  XZZ=              2.5321  YZZ=              0.0000
  YYZ=              0.5142  XYZ=             -0.0000
 Hexadecapole moment (field-independent basis, Debye-Ang**3):
 XXXX=          -1771.7687 YYYY=          -1008.8941 ZZZZ=           -131.3749 XXXY=              0.0001
 XXXZ=           -117.2577 YYYX=              0.0000 YYYZ=              0.0000 ZZZX=             -5.3155
 ZZZY=              0.0000 XXYY=           -501.3566 XXZZ=           -311.5535 YYZZ=           -176.9051
 XXYZ=             -0.0000 YYXZ=             -3.2002 ZZXY=              0.0000
 N-N= 1.110597564241D+03 E-N=-4.686254559012D+03  KE= 1.037349456947D+03
 No NMR shielding tensors so no spin-rotation constants.
 Leave Link  601 at Wed Jun  5 17:16:58 2024, MaxMem=  8053063680 cpu:               1.6 elap:               0.1
 (Enter /share/apps/g16.b01_avx2/g16/l701.exe)
 ... and contract with generalized density number  0.
 Compute integral first derivatives.
 R6Disp: Adding Grimme-D3 dispersion energy 1st derivatives to the gradient.
   1 Symmetry operations used in ECPInt.
 ECPInt:  NShTT=   14365 NPrTT=   47304 LenC2=   12945 LenP2D=   30950.
 LDataN:  DoStor=T MaxTD1= 7 Len=  274
 D1PCM: PCM CHGder 1st derivatives, ID1Alg=3 FixD1E=F DoIter=F DoCFld=F I1PDM=0.
 GePol: Maximum number of non-zero 1st derivatives   =     218
 Leave Link  701 at Wed Jun  5 17:16:59 2024, MaxMem=  8053063680 cpu:               9.8 elap:               0.6
 (Enter /share/apps/g16.b01_avx2/g16/l702.exe)
 L702 exits ... SP integral derivatives will be done elsewhere.
 Leave Link  702 at Wed Jun  5 17:16:59 2024, MaxMem=  8053063680 cpu:               0.1 elap:               0.0
 (Enter /share/apps/g16.b01_avx2/g16/l703.exe)
 Integral derivatives from FoFJK, PRISM(SPDF).
 Compute integral first derivatives, UseDBF=F ICtDFT=           0.
 Calling FoFJK, ICntrl=      2127 FMM=F ISym2X=0 I1Cent= 0 IOpClX= 0 NMat=1 NMatS=1 NMatT=0.
 FoFJK:  IHMeth= 1 ICntrl=    2127 DoSepK=F KAlg= 0 I1Cent=           0 FoldK=F
 IRaf=         0 NMat=       1 IRICut=       1 DoRegI=T DoRafI=F ISym2E= 0 IDoP0=0 IntGTp=1.
 FoFCou: FMM=F IPFlag=           0 FMFlag=      100000 FMFlg1=         800
         NFxFlg=           0 DoJE=F BraDBF=F KetDBF=F FulRan=T
         wScrn=  0.000000 ICntrl=      2127 IOpCl=  0 I1Cent=           0 NGrid=           0
         NMat0=    1 NMatS0=      1 NMatT0=    0 NMatD0=    1 NMtDS0=    0 NMtDT0=    0
 Symmetry not used in FoFCou.
 Leave Link  703 at Wed Jun  5 17:17:21 2024, MaxMem=  8053063680 cpu:             351.8 elap:              22.0
 (Enter /share/apps/g16.b01_avx2/g16/l716.exe)
 Dipole        = 1.13068427D+00 3.09767344D-07-7.46091247D-01
 ***** Axes restored to original set *****
 -------------------------------------------------------------------
 Center     Atomic                   Forces (Hartrees/Bohr)
 Number     Number              X              Y              Z
 -------------------------------------------------------------------
      1        6           0.003805460   -0.000000005    0.002425782
      2        6          -0.001424975    0.000316184   -0.000478981
      3        6          -0.001424642   -0.000316311   -0.000478901
      4        6           0.000435615    0.000663317    0.000036555
      5        6           0.000435917   -0.000663199    0.000036530
      6        6          -0.000861849   -0.000000012   -0.000461520
      7        8           0.000511938    0.000000012   -0.003046739
      8        1           0.001541740   -0.000000001    0.001393813
      9        9           0.001088647    0.001878305    0.000051783
     10        9           0.001088323   -0.001877977    0.000051737
     11        9          -0.000911346   -0.002061767    0.000020189
     12        9          -0.000911026    0.002061465    0.000020176
     13        6           0.002552157    0.000000008   -0.000574028
     14        9          -0.001758649   -0.000600122   -0.000451026
     15        9          -0.001758635    0.000600102   -0.000451024
     16        9          -0.002408674    0.000000000    0.001905652
 -------------------------------------------------------------------
 Cartesian Forces:  Max     0.003805460 RMS     0.001325613
 Leave Link  716 at Wed Jun  5 17:17:21 2024, MaxMem=  8053063680 cpu:               0.2 elap:               0.0
 (Enter /share/apps/g16.b01_avx2/g16/l103.exe)

 GradGradGradGradGradGradGradGradGradGradGradGradGradGradGradGradGradGrad
 Berny optimization.
 FormGI is forming the generalized inverse of G from B-inverse, IUseBI=4.
 Internal  Forces:  Max     0.003600331 RMS     0.001426510
 Search for a local minimum.
 Step number   1 out of a maximum of   83
 All quantities printed in internal units (Hartrees-Bohrs-Radians)
 RMS Force = .14265D-02 SwitMx=.10000D-02 MixMth= 1
 Mixed Optimization -- RFO/linear search
 Second derivative matrix not updated -- first step.
 ITU=  0
     Eigenvalues ---    0.00708   0.01615   0.02254   0.02283   0.02291
     Eigenvalues ---    0.02300   0.02308   0.02315   0.02319   0.02323
     Eigenvalues ---    0.02324   0.10753   0.10971   0.16000   0.24904
     Eigenvalues ---    0.24962   0.24980   0.24989   0.24997   0.24999
     Eigenvalues ---    0.24999   0.25000   0.25000   0.25000   0.25000
     Eigenvalues ---    0.25000   0.31923   0.43909   0.44137   0.47817
     Eigenvalues ---    0.47932   0.48420   0.48936   0.54137   0.54562
     Eigenvalues ---    0.57494   0.58681   0.58681   0.60903   0.60903
     Eigenvalues ---    0.61121   0.61122
 RFO step:  Lambda=-4.43095186D-04 EMin= 7.08147080D-03
 Linear search not attempted -- first point.
 Iteration  1 RMS(Cart)=  0.01065776 RMS(Int)=  0.00004209
 Iteration  2 RMS(Cart)=  0.00004266 RMS(Int)=  0.00001340
 Iteration  3 RMS(Cart)=  0.00000000 RMS(Int)=  0.00001340
 ITry= 1 IFail=0 DXMaxC= 5.03D-02 DCOld= 1.00D+10 DXMaxT= 3.00D-01 DXLimC= 3.00D+00 Rises=F
 Variable       Old X    -DE/DX   Delta X   Delta X   Delta X     New X
                                 (Linear)    (Quad)   (Total)
    R1        2.61705   0.00356   0.00000   0.00740   0.00740   2.62445
    R2        2.61705   0.00356   0.00000   0.00740   0.00740   2.62445
    R3        2.55523   0.00195   0.00000   0.00357   0.00357   2.55880
    R4        2.60954   0.00259   0.00000   0.00529   0.00529   2.61483
    R5        2.50064   0.00217   0.00000   0.00355   0.00355   2.50419
    R6        2.60954   0.00259   0.00000   0.00529   0.00529   2.61483
    R7        2.50064   0.00217   0.00000   0.00355   0.00355   2.50419
    R8        2.62361   0.00325   0.00000   0.00681   0.00681   2.63041
    R9        2.50233   0.00225   0.00000   0.00369   0.00369   2.50602
   R10        2.62361   0.00325   0.00000   0.00681   0.00681   2.63041
   R11        2.50233   0.00225   0.00000   0.00369   0.00369   2.50602
   R12        2.84285   0.00338   0.00000   0.01057   0.01057   2.85341
   R13        1.82607  -0.00068   0.00000  -0.00126  -0.00126   1.82481
   R14        2.52000   0.00039   0.00000   0.00067   0.00067   2.52066
   R15        2.52000   0.00039   0.00000   0.00067   0.00067   2.52066
   R16        2.52980   0.00261   0.00000   0.00454   0.00454   2.53434
    A1        2.06216  -0.00143   0.00000  -0.00539  -0.00541   2.05675
    A2        2.10895   0.00072   0.00000   0.00315   0.00312   2.11208
    A3        2.10895   0.00072   0.00000   0.00315   0.00312   2.11208
    A4        2.10958   0.00079   0.00000   0.00317   0.00317   2.11275
    A5        2.08965  -0.00043   0.00000  -0.00173  -0.00173   2.08792
    A6        2.08395  -0.00036   0.00000  -0.00145  -0.00145   2.08250
    A7        2.10958   0.00079   0.00000   0.00317   0.00317   2.11275
    A8        2.08965  -0.00043   0.00000  -0.00173  -0.00173   2.08792
    A9        2.08395  -0.00036   0.00000  -0.00145  -0.00145   2.08250
   A10        2.11701   0.00028   0.00000   0.00108   0.00107   2.11808
   A11        2.05080  -0.00032   0.00000  -0.00127  -0.00126   2.04954
   A12        2.11532   0.00004   0.00000   0.00020   0.00020   2.11552
   A13        2.11701   0.00028   0.00000   0.00108   0.00107   2.11808
   A14        2.05080  -0.00032   0.00000  -0.00126  -0.00126   2.04954
   A15        2.11532   0.00004   0.00000   0.00020   0.00020   2.11552
   A16        2.05044  -0.00072   0.00000  -0.00293  -0.00294   2.04750
   A17        2.11580   0.00036   0.00000   0.00149   0.00149   2.11729
   A18        2.11580   0.00036   0.00000   0.00149   0.00149   2.11729
   A19        1.91193   0.00360   0.00000   0.02244   0.02244   1.93437
   A20        1.95309   0.00190   0.00000   0.00678   0.00676   1.95985
   A21        1.95309   0.00190   0.00000   0.00678   0.00676   1.95985
   A22        1.93285   0.00215   0.00000   0.01018   0.01013   1.94299
   A23        1.87210  -0.00279   0.00000  -0.01401  -0.01401   1.85809
   A24        1.87434  -0.00179   0.00000  -0.00568  -0.00573   1.86861
   A25        1.87434  -0.00179   0.00000  -0.00568  -0.00573   1.86861
    D1       -0.01448   0.00019   0.00000   0.00753   0.00752  -0.00696
    D2        3.12449   0.00012   0.00000   0.00489   0.00488   3.12937
    D3       -3.07197  -0.00012   0.00000  -0.00477  -0.00476  -3.07673
    D4        0.06700  -0.00018   0.00000  -0.00741  -0.00740   0.05959
    D5        0.01448  -0.00019   0.00000  -0.00753  -0.00752   0.00696
    D6       -3.12449  -0.00012   0.00000  -0.00490  -0.00488  -3.12937
    D7        3.07197   0.00012   0.00000   0.00477   0.00476   3.07673
    D8       -0.06700   0.00018   0.00000   0.00740   0.00740  -0.05960
    D9       -1.61398   0.00011   0.00000   0.00611   0.00613  -1.60785
   D10        1.61398  -0.00011   0.00000  -0.00611  -0.00613   1.60785
   D11       -0.01019  -0.00007   0.00000  -0.00272  -0.00273  -0.01292
   D12        3.12027  -0.00005   0.00000  -0.00197  -0.00198   3.11829
   D13        3.13401  -0.00001   0.00000  -0.00009  -0.00010   3.13392
   D14       -0.01871   0.00001   0.00000   0.00066   0.00066  -0.01806
   D15        0.01019   0.00007   0.00000   0.00272   0.00273   0.01292
   D16       -3.12027   0.00005   0.00000   0.00197   0.00198  -3.11829
   D17       -3.13401   0.00001   0.00000   0.00009   0.00010  -3.13392
   D18        0.01871  -0.00001   0.00000  -0.00066  -0.00065   0.01806
   D19        0.03399  -0.00006   0.00000  -0.00223  -0.00224   0.03175
   D20        3.12457  -0.00002   0.00000  -0.00109  -0.00109   3.12348
   D21       -3.09606  -0.00007   0.00000  -0.00300  -0.00301  -3.09907
   D22       -0.00548  -0.00004   0.00000  -0.00186  -0.00186  -0.00734
   D23       -0.03399   0.00006   0.00000   0.00223   0.00224  -0.03175
   D24       -3.12457   0.00002   0.00000   0.00109   0.00109  -3.12348
   D25        3.09606   0.00007   0.00000   0.00300   0.00301   3.09907
   D26        0.00548   0.00004   0.00000   0.00186   0.00186   0.00734
   D27        0.54635   0.00046   0.00000   0.00372   0.00373   0.55009
   D28        2.64816  -0.00046   0.00000  -0.00477  -0.00479   2.64337
   D29       -1.54433  -0.00000   0.00000  -0.00053  -0.00053  -1.54486
   D30       -2.64816   0.00046   0.00000   0.00477   0.00479  -2.64337
   D31       -0.54635  -0.00046   0.00000  -0.00372  -0.00373  -0.55008
   D32        1.54433   0.00000   0.00000   0.00053   0.00053   1.54487
         Item               Value     Threshold  Converged?
 Maximum Force            0.003600     0.000450     NO 
 RMS     Force            0.001427     0.000300     NO 
 Maximum Displacement     0.050255     0.001800     NO 
 RMS     Displacement     0.010647     0.001200     NO 
 Predicted change in Energy=-2.220751D-04
 Lowest energy point so far.  Saving SCF results.
 GradGradGradGradGradGradGradGradGradGradGradGradGradGradGradGradGradGrad

 Leave Link  103 at Wed Jun  5 17:17:21 2024, MaxMem=  8053063680 cpu:               0.3 elap:               0.0
 (Enter /share/apps/g16.b01_avx2/g16/l202.exe)
                          Input orientation:                          
 ---------------------------------------------------------------------
 Center     Atomic      Atomic             Coordinates (Angstroms)
 Number     Number       Type             X           Y           Z
 ---------------------------------------------------------------------
      1          6           0        2.144962    0.000000   -0.005124
      2          6           0        1.428051    1.189455   -0.003111
      3          6           0        1.428051   -1.189455   -0.003111
      4          6           0        0.044347    1.188819   -0.007476
      5          6           0        0.044347   -1.188819   -0.007476
      6          6           0       -0.679373    0.000000   -0.029387
      7          8           0        3.496687    0.000000    0.074353
      8          1           0        3.892473    0.000000   -0.806459
      9          9           0        2.076369    2.345126    0.009147
     10          9           0        2.076369   -2.345126    0.009147
     11          9           0       -0.567191   -2.365148    0.022251
     12          9           0       -0.567191    2.365148    0.022251
     13          6           0       -2.189220   -0.000000   -0.010766
     14          9           0       -2.702756    1.068500   -0.622170
     15          9           0       -2.702755   -1.068502   -0.622169
     16          9           0       -2.661482    0.000001    1.244448
 ---------------------------------------------------------------------
                    Distance matrix (angstroms):
                    1          2          3          4          5
     1  C    0.000000
     2  C    1.388801   0.000000
     3  C    1.388801   2.378910   0.000000
     4  C    2.413686   1.383711   2.751516   0.000000
     5  C    2.413686   2.751516   1.383711   2.377637   0.000000
     6  C    2.824440   2.420068   2.420068   1.391955   1.391955
     7  O    1.354059   2.387480   2.387480   3.652210   3.652211
     8  H    1.922480   2.851938   2.851938   4.106061   4.106061
     9  F    2.346173   1.325158   3.593568   2.338042   4.076538
    10  F    2.346173   3.593568   1.325158   4.076537   2.338042
    11  F    3.598673   4.076375   2.316007   3.606320   1.326127
    12  F    3.598673   2.316007   4.076375   1.326127   3.606320
    13  C    4.334186   3.807822   3.807822   2.530241   2.530241
    14  F    5.002281   4.178687   4.748174   2.817605   3.608311
    15  F    5.002280   4.748174   4.178687   3.608312   2.817604
    16  F    4.966220   4.437959   4.437959   3.209690   3.209690
                    6          7          8          9         10
     6  C    0.000000
     7  O    4.177349   0.000000
     8  H    4.637415   0.965648   0.000000
     9  F    3.618732   2.742476   3.076209   0.000000
    10  F    3.618732   2.742476   3.076209   4.690253   0.000000
    11  F    2.368370   4.702313   5.115593   5.401414   2.643668
    12  F    2.368370   4.702313   5.115593   2.643668   5.401413
    13  C    1.509962   5.686545   6.133524   4.867779   4.867778
    14  F    2.363718   6.329292   6.683764   4.986820   5.906898
    15  F    2.363718   6.329291   6.683764   5.906898   4.986819
    16  F    2.356144   6.268347   6.867354   5.428887   5.428888
                   11         12         13         14         15
    11  F    0.000000
    12  F    4.730296   0.000000
    13  C    2.868099   2.868100   0.000000
    14  F    4.094613   2.580158   1.333877   0.000000
    15  F    2.580156   4.094614   1.333877   2.137002   0.000000
    16  F    3.387292   3.387292   1.341117   2.151200   2.151200
                   16
    16  F    0.000000
 Stoichiometry    C7HF7O
 Framework group  C1[X(C7HF7O)]
 Deg. of freedom    42
 Full point group                 C1      NOp   1
 RotChk:  IX=3 Diff= 1.08D-03
 Largest Abelian subgroup         C1      NOp   1
 Largest concise Abelian subgroup C1      NOp   1
                         Standard orientation:                         
 ---------------------------------------------------------------------
 Center     Atomic      Atomic             Coordinates (Angstroms)
 Number     Number       Type             X           Y           Z
 ---------------------------------------------------------------------
      1          6           0        2.147112   -0.000000   -0.003094
      2          6           0        1.430200    1.189455   -0.001629
      3          6           0        1.430199   -1.189455   -0.001629
      4          6           0        0.046499    1.188819   -0.007053
      5          6           0        0.046499   -1.188819   -0.007053
      6          6           0       -0.677204    0.000000   -0.029518
      7          8           0        3.498776   -0.000000    0.077417
      8          1           0        3.895236   -0.000000   -0.803091
      9          9           0        2.078509    2.345126    0.011125
     10          9           0        2.078508   -2.345126    0.011125
     11          9           0       -0.565061   -2.365148    0.022206
     12          9           0       -0.565060    2.365148    0.022206
     13          6           0       -2.187065    0.000000   -0.012052
     14          9           0       -2.700132    1.068501   -0.623848
     15          9           0       -2.700132   -1.068501   -0.623847
     16          9           0       -2.660286    0.000001    1.242801
 ---------------------------------------------------------------------
 Rotational constants (GHZ):           0.8748507           0.4999817           0.3372186
 Leave Link  202 at Wed Jun  5 17:17:21 2024, MaxMem=  8053063680 cpu:               0.0 elap:               0.0
 (Enter /share/apps/g16.b01_avx2/g16/l301.exe)
 Standard basis: def2TZVP (5D, 7F)
 Ernie: Thresh=  0.10000D-02 Tol=  0.10000D-05 Strict=F.
 There are   546 symmetry adapted cartesian basis functions of A   symmetry.
 There are   471 symmetry adapted basis functions of A   symmetry.
   471 basis functions,   773 primitive gaussians,   546 cartesian basis functions
    57 alpha electrons       57 beta electrons
       nuclear repulsion energy      1107.7462348373 Hartrees.
 IExCor= 1009 DFT=T Ex+Corr=PBE1PBE ExCW=0 ScaHFX=  0.250000
 ScaDFX=  0.750000  0.750000  1.000000  1.000000 ScalE2=  1.000000  1.000000
 IRadAn=  99590 IRanWt=     -1 IRanGd=            0 ICorTp=0 IEmpDi=131
 NAtoms=   16 NActive=   16 NUniq=   16 SFac= 1.00D+00 NAtFMM=   60 NAOKFM=F Big=F
 Integral buffers will be    131072 words long.
 Raffenetti 2 integral format.
 Two-electron integral symmetry is turned on.
 R6Disp:  Grimme-D3 Dispersion energy=       -0.0081937841 Hartrees.
 Nuclear repulsion after empirical dispersion term =     1107.7380410532 Hartrees.
 ------------------------------------------------------------------------------
 Polarizable Continuum Model (PCM)
 =================================
 Model                : PCM.
 Atomic radii         : UFF (Universal Force Field).
 Polarization charges : Total charges.
 Charge compensation  : None.
 Solution method      : On-the-fly selection.
 Cavity type          : Scaled VdW (van der Waals Surface) (Alpha=1.100).
 Cavity algorithm     : GePol (No added spheres)
                        Default sphere list used, NSphG=   16.
                        Lebedev-Laikov grids with approx.  5.0 points / Ang**2.
                        Smoothing algorithm: York/Karplus (Gamma=1.0000).
                        Polarization charges: spherical gaussians, with
                                              point-specific exponents (IZeta= 3).
                        Self-potential: point-specific (ISelfS= 7).
                        Self-field    : sphere-specific E.n sum rule (ISelfD= 2).
 1st derivatives      : Analytical E(r).r(x)/FMM algorithm (CHGder, D1EAlg=3).
                        Cavity 1st derivative terms included.
 Solvent              : Water, Eps=  78.355300 Eps(inf)=   1.777849
 ------------------------------------------------------------------------------
 Spheres list:
 ISph  on   Nord     Re0    Alpha      Xe            Ye            Ze
    1   C      1    1.9255  1.100      2.147112     -0.000000     -0.003094
    2   C      2    1.9255  1.100      1.430200      1.189455     -0.001629
    3   C      3    1.9255  1.100      1.430199     -1.189455     -0.001629
    4   C      4    1.9255  1.100      0.046499      1.188819     -0.007053
    5   C      5    1.9255  1.100      0.046499     -1.188819     -0.007053
    6   C      6    1.9255  1.100     -0.677204      0.000000     -0.029518
    7   O      7    1.7500  1.100      3.498776     -0.000000      0.077417
    8   H      8    1.4430  1.100      3.895236     -0.000000     -0.803091
    9   F      9    1.6820  1.100      2.078509      2.345126      0.011125
   10   F     10    1.6820  1.100      2.078508     -2.345126      0.011125
   11   F     11    1.6820  1.100     -0.565061     -2.365148      0.022206
   12   F     12    1.6820  1.100     -0.565060      2.365148      0.022206
   13   C     13    1.9255  1.100     -2.187065      0.000000     -0.012052
   14   F     14    1.6820  1.100     -2.700132      1.068501     -0.623848
   15   F     15    1.6820  1.100     -2.700132     -1.068501     -0.623847
   16   F     16    1.6820  1.100     -2.660286      0.000001      1.242801
 ------------------------------------------------------------------------------
 GePol: Number of generator spheres                  =      16
 GePol: Total number of spheres                      =      16
 GePol: Number of exposed spheres                    =      16 (100.00%)
 GePol: Number of points                             =    1734
 GePol: Average weight of points                     =       0.12
 GePol: Minimum weight of points                     =   0.21D-09
 GePol: Maximum weight of points                     =    0.20212
 GePol: Number of points with low weight             =      67
 GePol: Fraction of low-weight points (<1% of avg)   =       3.86%
 GePol: Cavity surface area                          =    216.310 Ang**2
 GePol: Cavity volume                                =    217.764 Ang**3
 Leave Link  301 at Wed Jun  5 17:17:21 2024, MaxMem=  8053063680 cpu:               0.3 elap:               0.0
 (Enter /share/apps/g16.b01_avx2/g16/l302.exe)
 NPDir=0 NMtPBC=     1 NCelOv=     1 NCel=       1 NClECP=     1 NCelD=      1
         NCelK=      1 NCelE2=     1 NClLst=     1 CellRange=     0.0.
 One-electron integrals computed using PRISM.
 One-electron integral symmetry used in STVInt
   1 Symmetry operations used in ECPInt.
 ECPInt:  NShTT=   14365 NPrTT=   47304 LenC2=   12930 LenP2D=   30914.
 LDataN:  DoStor=T MaxTD1= 6 Len=  172
 NBasis=   471 RedAO= T EigKep=  1.40D-05  NBF=   471
 NBsUse=   471 1.00D-06 EigRej= -1.00D+00 NBFU=   471
 Precomputing XC quadrature grid using
 IXCGrd= 4 IRadAn=       99590 IRanWt=          -1 IRanGd=           0 AccXCQ= 0.00D+00.
 Generated NRdTot=       0 NPtTot=           0 NUsed=           0 NTot=          32
 NSgBfM=   540   540   540   540   540 MxSgAt=    16 MxSgA2=    16.
 Leave Link  302 at Wed Jun  5 17:17:21 2024, MaxMem=  8053063680 cpu:               2.6 elap:               0.2
 (Enter /share/apps/g16.b01_avx2/g16/l303.exe)
 DipDrv:  MaxL=1.
 Leave Link  303 at Wed Jun  5 17:17:21 2024, MaxMem=  8053063680 cpu:               0.4 elap:               0.0
 (Enter /share/apps/g16.b01_avx2/g16/l401.exe)
 Initial guess from the checkpoint file:  "/scratch/Gau-3331.chk"
 B after Tr=     0.000000   -0.000000    0.000000
         Rot=    1.000000    0.000000    0.000108    0.000000 Ang=   0.01 deg.
 Guess basis will be translated and rotated to current coordinates.
 JPrj=2 DoOrth=T DoCkMO=T.
 Generating alternative initial guess.
 ExpMin= 9.52D-02 ExpMax= 3.55D+04 ExpMxC= 1.21D+03 IAcc=4 IRadAn=    199590 AccDes= 0.00D+00
 Harris functional with IExCor= 1009 and IRadAn=  199590 diagonalized for initial guess.
 HarFok:  IExCor= 1009 AccDes= 0.00D+00 IRadAn=    199590 IDoV= 1 UseB2=F ITyADJ=14
 ICtDFT=  3500011 ScaDFX=  1.000000  1.000000  1.000000  1.000000
 FoFCou: FMM=F IPFlag=           0 FMFlag=      100000 FMFlg1=           0
         NFxFlg=           0 DoJE=T BraDBF=F KetDBF=T FulRan=T
         wScrn=  0.000000 ICntrl=       500 IOpCl=  0 I1Cent=   200000004 NGrid=           0
         NMat0=    1 NMatS0=      1 NMatT0=    0 NMatD0=    1 NMtDS0=    0 NMtDT0=    0
 Petite list used in FoFCou.
 Harris En= -1040.86098242001    
 Leave Link  401 at Wed Jun  5 17:17:23 2024, MaxMem=  8053063680 cpu:              27.6 elap:               1.7
 (Enter /share/apps/g16.b01_avx2/g16/l502.exe)
 Integral symmetry usage will be decided dynamically.
 Closed shell SCF:
 Using DIIS extrapolation, IDIIS=  1040.
 NGot=  8053063680 LenX=  8052454134 LenY=  8052155472
 Requested convergence on RMS density matrix=1.00D-08 within 128 cycles.
 Requested convergence on MAX density matrix=1.00D-06.
 Requested convergence on             energy=1.00D-06.
 No special actions if energy rises.
 Fock matrices will be formed incrementally for  20 cycles.

 Cycle   1  Pass 1  IDiag  1:
 FoFJK:  IHMeth= 1 ICntrl=       0 DoSepK=F KAlg= 0 I1Cent=           0 FoldK=F
 IRaf= 850000000 NMat=       1 IRICut=       1 DoRegI=T DoRafI=F ISym2E= 0 IDoP0=0 IntGTp=1.
 FoFCou: FMM=F IPFlag=           0 FMFlag=      100000 FMFlg1=           0
         NFxFlg=           0 DoJE=F BraDBF=F KetDBF=F FulRan=T
         wScrn=  0.000000 ICntrl=         0 IOpCl=  0 I1Cent=           0 NGrid=           0
         NMat0=    1 NMatS0=      1 NMatT0=    0 NMatD0=    1 NMtDS0=    0 NMtDT0=    0
 Symmetry not used in FoFCou.
 Inv3:  Mode=1 IEnd=     9020268.
 Iteration    1 A*A^-1 deviation from unit magnitude is 2.89D-15 for   1096.
 Iteration    1 A*A^-1 deviation from orthogonality  is 1.55D-15 for   1470    894.
 Iteration    1 A^-1*A deviation from unit magnitude is 2.66D-15 for    379.
 Iteration    1 A^-1*A deviation from orthogonality  is 1.41D-15 for    540    374.
 E= -1040.84827361532    
 DIIS: error= 3.02D-04 at cycle   1 NSaved=   1.
 NSaved= 1 IEnMin= 1 EnMin= -1040.84827361532     IErMin= 1 ErrMin= 3.02D-04
 ErrMax= 3.02D-04  0.00D+00 EMaxC= 1.00D-01 BMatC= 1.84D-04 BMatP= 1.84D-04
 IDIUse=3 WtCom= 9.97D-01 WtEn= 3.02D-03
 Coeff-Com:  0.100D+01
 Coeff-En:   0.100D+01
 Coeff:      0.100D+01
 Gap=     0.782 Goal=   None    Shift=    0.000
 RMSDP=1.56D-04 MaxDP=8.81D-03              OVMax= 2.51D-03

 Cycle   2  Pass 1  IDiag  1:
 RMSU=  1.56D-04    CP:  1.00D+00
 E= -1040.84843881891     Delta-E=       -0.000165203591 Rises=F Damp=F
 DIIS: error= 9.20D-05 at cycle   2 NSaved=   2.
 NSaved= 2 IEnMin= 2 EnMin= -1040.84843881891     IErMin= 2 ErrMin= 9.20D-05
[...]
 (esu units = cm**3 , SI units = C**2 m**2 J**-1)
 Alpha(0;0):
               (au)            (10**-24 esu)      (10**-40 SI)
   iso        0.109084D+03      0.161646D+02      0.179855D+02
   aniso      0.645908D+02      0.957137D+01      0.106496D+02
   xx         0.137897D+03      0.204342D+02      0.227362D+02
   yx         0.000000D+00      0.000000D+00      0.000000D+00
   yy         0.122370D+03      0.181334D+02      0.201761D+02
   zx        -0.104548D+01     -0.154925D+00     -0.172377D+00
   zy         0.000000D+00      0.000000D+00      0.000000D+00
   zz         0.669840D+02      0.992601D+01      0.110442D+02

 ----------------------------------------------------------------------

 Dipole orientation:
     6          2.15992311         -0.00000024          3.42879626
     6          1.43607885         -2.24655470          2.28154466
     6          1.43607890          2.24655431          2.28154488
     6          0.03065164         -2.24553558          0.07796458
     6          0.03065174          2.24553556          0.07796478
     6         -0.73558340          0.00000006         -1.05487274
     8          3.65726203         -0.00000034          5.49760817
     1          2.65427503         -0.00000022          7.02103396
     9          2.10973435         -4.43202586          3.30410191
     9          2.10973444          4.43202538          3.30410240
     9         -0.54300258          4.46814759         -0.92862035
     9         -0.54300256         -4.46814754         -0.92862086
     6         -2.22980099          0.00000026         -3.48080865
     9         -3.71916489         -2.02489027         -3.67844491
     9         -3.71916283          2.02489224         -3.67844555
     9         -0.69501859         -0.00000076         -5.49916339

 Electric dipole moment (dipole orientation):
 (Debye = 10**-18 statcoulomb cm , SI units = C m)
                  (au)            (Debye)         (10**-30 SI)
   Tot        0.139070D+01      0.353480D+01      0.117908D+02
   x          0.000000D+00      0.000000D+00      0.000000D+00
   y          0.000000D+00      0.000000D+00      0.000000D+00
   z          0.139070D+01      0.353480D+01      0.117908D+02

 Dipole polarizability, Alpha (dipole orientation).
 (esu units = cm**3 , SI units = C**2 m**2 J**-1)
 Alpha(0;0):
               (au)            (10**-24 esu)      (10**-40 SI)
   iso        0.109084D+03      0.161646D+02      0.179855D+02
   aniso      0.645908D+02      0.957137D+01      0.106496D+02
   xx         0.863539D+02      0.127963D+02      0.142378D+02
   yx         0.000000D+00      0.000000D+00      0.000000D+00
   yy         0.122370D+03      0.181334D+02      0.201761D+02
   zx         0.316145D+02      0.468479D+01      0.521253D+01
   zy         0.000000D+00      0.000000D+00      0.000000D+00
   zz         0.118527D+03      0.175639D+02      0.195425D+02

 ----------------------------------------------------------------------
 1\1\GINC-CORNBREAD-16-02\Freq\RPBE1PBE\def2TZVP\C7H1F7O1\HILLEL\05-Jun
 -2024\0\\#P Geom=AllCheck Guess=TCheck SCRF=Check GenChk RPBE1PBE/def2
 TZVP Freq\\tfp-cf3-OH_product2\\0,1\C,2.1444279768,0.0000001044,-0.005
 6811442\C,1.4265917635,1.1888255342,-0.0042938361\C,1.4265918497,-1.18
 88253604,-0.0042938283\C,0.0435315576,1.1882862564,-0.0083812389\C,0.0
 435316436,-1.1882862476,-0.0083812006\C,-0.6798681513,-0.0000000226,-0
 .0300250568\O,3.4932800162,0.0000001431,0.0776616839\H,3.8901637196,0.
 0000000546,-0.8021591753\F,2.0744748026,2.3453270616,0.0072025592\F,2.
 0744749926,-2.3453268514,0.007202563\F,-0.5688879637,-2.3644418712,0.0
 202986923\F,-0.5688881317,2.3644418581,0.0202987434\C,-2.1874692699,-0
 .0000001128,-0.0108222299\F,-2.6976536563,1.0715258044,-0.6205848611\F
 ,-2.697653383,-1.0715268083,-0.6205837103\F,-2.6549607663,0.0000004574
 ,1.2468910399\\Version=ES64L-G16RevB.01\State=1-A\HF=-1040.8484805\RMS
 D=2.347e-09\RMSF=7.820e-05\ZeroPoint=0.076436\Thermal=0.0877081\Dipole
 =1.1747217,0.,-0.7443541\DipoleDeriv=1.6627747,0.,-0.0099928,0.,0.2850
 66,0.,0.0028707,0.,0.0056057,0.2591582,0.9323589,0.0071709,0.7477332,1
 .1795024,0.0136843,0.0253128,0.0057625,0.0832956,0.2591583,-0.932359,0
 .0071709,-0.7477332,1.1795022,-0.0136843,0.0253128,-0.0057625,0.083295
 6,0.7331615,-0.8411924,-0.0109056,-0.3371574,1.3215694,0.0373211,0.009
 3115,0.0349764,0.1177815,0.7331614,0.8411924,-0.0109056,0.3371573,1.32
 15695,-0.0373211,0.0093116,-0.0349763,0.1177815,-0.7106603,0.,-0.01344
 02,-0.0000001,-0.2401377,0.,-0.1045673,0.,-0.1949173,-1.7722531,0.,0.0
 876061,0.,-0.5063593,0.,0.0964168,0.,-0.2398506,0.4875717,0.,-0.078398
 1,0.,0.4188331,0.,-0.1366544,0.,0.3204486,-0.5375434,-0.587493,-0.0038
 529,-0.5972803,-1.2274169,-0.0104963,-0.0139289,-0.0115275,-0.0946129,
 -0.5375435,0.5874931,-0.0038529,0.5972804,-1.2274168,0.0104963,-0.0139
 289,0.0115275,-0.0946129,-0.5152893,-0.5553664,0.0155767,-0.5344129,-1
 .2671452,0.0216577,0.0107766,0.0362204,-0.0988633,-0.5152894,0.5553665
 ,0.0155767,0.534413,-1.2671451,-0.0216577,0.0107767,-0.0362205,-0.0988
 633,2.7956751,0.,0.0014336,-0.0000001,1.9165494,0.,-0.0808855,0.,2.058
 8769,-0.7405948,0.2954811,-0.1572804,0.3124882,-0.7768717,0.2693499,-0
 .1343561,0.2724709,-0.487013,-0.7405945,-0.2954812,-0.15728,-0.3124882
 ,-0.7768724,-0.2693496,-0.1343557,-0.2724706,-0.4870124,-0.8608926,0.0
 000001,0.3113735,0.0000002,-0.3332269,-0.0000003,0.4285871,-0.0000003,
 -0.9913397\Polar=137.8971466,0.0000005,122.37031,-1.0454832,-0.0000004
 ,66.9840397\Quadrupole=1.4724027,-4.7914267,3.319024,0.,-5.3258341,-0.
 0000001\PG=C01 [X(C7H1F7O1)]\NImag=2\\0.73270749,0.00000001,0.70573580
 ,-0.00788426,0.,0.16541733,-0.16707573,0.04619558,-0.00022479,0.731460
 16,0.14133979,-0.27096031,-0.00101229,0.00097610,0.72880285,0.00117228
 ,-0.00204422,-0.06212262,0.00279382,0.00460384,0.12788295,-0.16707572,
 -0.04619559,-0.00022479,0.08354031,-0.02671479,0.00116975,0.73146016,-
 0.14133980,-0.27096035,0.00101229,0.02671480,-0.05827671,0.00054723,-0
 .00097606,0.72880283,0.00117228,0.00204422,-0.06212262,0.00116974,-0.0
 0054723,-0.00136327,0.00279381,-0.00460384,0.12788295,-0.02435800,0.09
 130126,-0.00025192,-0.33304799,-0.05541826,-0.00121141,-0.06818405,-0.
 03010100,-0.00053952,0.71856788,0.02855803,0.03897687,0.00062831,0.045
 15082,-0.10254424,0.00082990,-0.02898048,-0.01882999,-0.00016828,0.005
 66953,0.70995408,0.00074281,0.00117341,-0.00178826,0.00004516,-0.00042
 582,-0.06584412,-0.00048285,-0.00037290,0.00648301,0.00086919,0.008579
 28,0.13908975,-0.02435799,-0.09130126,-0.00025192,-0.06818406,0.030100
 99,-0.00053952,-0.33304799,0.05541823,-0.00121141,0.08627854,0.0260732
 9,0.00049636,0.71856789,-0.02855803,0.03897686,-0.00062831,0.02898047,
 -0.01882998,0.00016828,-0.04515085,-0.10254424,-0.00082990,-0.02607327
 ,-0.05889641,0.00010683,-0.00566950,0.70995412,0.00074280,-0.00117341,
 -0.00178826,-0.00048285,0.00037290,0.00648301,0.00004516,0.00042582,-0
 .06584412,0.00049637,-0.00010682,0.00121904,0.00086920,-0.00857927,0.1
 3908975,0.00672661,0.,0.00062366,-0.02050019,-0.02173073,-0.00048276,-
 0.02050019,0.02173072,-0.00048276,-0.19709924,-0.12776851,-0.00128582,
 -0.19709925,0.12776851,-0.00128582,0.66722604,0.,-0.06849118,0.,-0.078
 73616,0.03485025,-0.00084267,0.07873616,0.03485026,0.00084267,-0.05786
 379,-0.26008917,-0.00322095,0.05786380,-0.26008916,0.00322095,0.,0.715
 86455,0.00045785,0.,0.00565937,-0.00081992,0.00106567,0.00396814,-0.00
 081992,-0.00106567,0.00396814,-0.00121678,-0.00165806,-0.05915643,-0.0
 0121679,0.00165806,-0.05915642,-0.00375679,0.,0.15642533,-0.32527232,-
 0.00000001,-0.02908146,-0.05449968,0.00289128,-0.00194086,-0.05449968,
 -0.00289128,-0.00194086,0.00963387,0.00019608,0.00047892,0.00963387,-0
 .00019608,0.00047892,-0.00932619,0.,-0.00130320,0.51389231,0.,-0.06574
 525,0.,0.03252326,0.00382459,-0.00070291,-0.03252326,0.00382459,0.0007
 0291,-0.00282938,-0.00586906,-0.00165491,0.00282938,-0.00586906,0.0016
 5491,0.,0.00141399,0.,0.,0.04929080,0.01288431,0.,-0.07596020,0.001487
 75,0.00188306,0.00981521,0.00148775,-0.00188306,0.00981521,-0.00031941
 ,-0.00054382,0.00611896,-0.00031941,0.00054382,0.00611896,0.00008220,0
 .,-0.00203982,-0.16269285,0.00000005,0.49712860,-0.03790977,0.,0.03770
 001,0.00012424,-0.00156044,-0.00031225,0.00012424,0.00156044,-0.000312
 25,-0.00134918,0.00052566,-0.00125198,-0.00134918,-0.00052566,-0.00125
 198,0.00124672,0.,0.00055605,-0.09935923,0.00000001,0.14690658,0.13823
 952,0.,-0.00520802,0.,0.00390391,0.00042620,0.00109151,-0.00390391,0.0
 0042621,-0.00109151,-0.00055438,-0.00058376,0.00124719,0.00055438,-0.0
 0058376,-0.00124719,0.,0.00040705,0.,0.00000002,0.00893073,-0.00000005
 ,-0.00000002,-0.00404689,-0.00589060,0.,0.00714452,-0.00302003,-0.0004
 8520,0.00026266,-0.00302003,0.00048520,0.00026266,0.00114643,0.0000618
 8,-0.00017385,0.00114643,-0.00006188,-0.00017385,-0.00099486,0.,-0.000
 18874,0.19486172,-0.00000005,-0.43985280,-0.18399819,0.00000004,0.4328
 3380,0.00623719,0.00950095,-0.00017745,-0.14264512,-0.12339838,-0.0013
 5498,-0.00734550,0.00246725,-0.00016501,-0.02706801,-0.05423521,-0.000
 66188,0.00358803,0.00199003,-0.00017571,-0.00638319,0.00563423,0.00022
 676,0.00784572,0.00339622,-0.00018535,-0.00000598,-0.00061464,0.000383
 88,0.16197753,-0.03546981,-0.05428637,-0.00086388,-0.12206109,-0.29107
 934,-0.00259751,0.00509437,0.00469756,-0.00000530,-0.01053590,-0.02402
 364,-0.00026098,0.00097339,0.00510585,-0.00030350,-0.00055967,-0.00127
 786,-0.00001367,0.00235758,0.00559593,-0.00033418,-0.00013232,0.000211
 41,0.00057073,0.16265725,0.35824086,-0.00133252,0.00003230,0.00829311,
 -0.00141675,-0.00333178,-0.03720730,-0.00014401,0.00014832,0.00540741,
 -0.00050961,-0.00073811,0.00825647,0.00023956,-0.00002709,-0.00256364,
 -0.00012137,0.00016126,0.00448653,-0.00004355,0.00022385,-0.00541983,0
 .00107747,-0.00001149,-0.00019969,0.00215529,0.00330528,0.02259098,0.0
 0623718,-0.00950094,-0.00017745,-0.00734550,-0.00246725,-0.00016501,-0
 .14264514,0.12339837,-0.00135498,0.00358803,-0.00199002,-0.00017571,-0
 .02706802,0.05423521,-0.00066187,-0.00638320,-0.00563423,0.00022676,0.
 00784572,-0.00339623,-0.00018535,-0.00000598,0.00061464,0.00038388,0.0
 0165127,0.00052538,0.00005410,0.16197755,0.03546982,-0.05428636,0.0008
 6388,-0.00509438,0.00469756,0.00000531,0.12206109,-0.29107928,0.002597
 51,-0.00097339,0.00510585,0.00030351,0.01053590,-0.02402364,0.00026097
 ,0.00055967,-0.00127785,0.00001367,-0.00235758,0.00559593,0.00033418,0
 .00013232,0.00021141,-0.00057073,-0.00052538,-0.00615325,-0.00008768,-
 0.16265724,0.35824080,-0.00133252,-0.00003230,0.00829311,-0.00014401,-
 0.00014832,0.00540741,-0.00141675,0.00333178,-0.03720730,0.00023956,0.
 00002709,-0.00256364,-0.00050961,0.00073811,0.00825647,-0.00012137,-0.
 00016126,0.00448653,-0.00004355,-0.00022385,-0.00541983,0.00107747,0.0
 0001149,-0.00019969,0.00005410,0.00008768,0.00039553,0.00215529,-0.003
 30528,0.02259098,-0.00193153,0.01198846,0.00006154,0.00699466,-0.00002
 303,0.00006456,-0.03036488,-0.05990720,0.00111597,-0.01061086,0.000277
 88,-0.00025539,-0.13681028,-0.11385083,0.00242888,0.01970629,0.0121017
 1,0.00061951,-0.00431591,-0.00262241,0.00046407,0.00028377,-0.00021840
 ,-0.00065444,-0.00231949,-0.00415220,-0.00004508,0.00402087,0.00018710
 ,-0.00003363,0.16254198,0.00543939,0.00436053,0.00018165,0.00553142,0.
 00312914,0.00015863,-0.01739251,-0.03027010,0.00145520,0.00044536,0.00
 159813,0.00051517,-0.11748968,-0.29212719,0.00518428,-0.02022685,-0.04
 611277,0.00179829,-0.00416900,-0.00060854,0.00038266,0.00047600,-0.000
 09031,-0.00065620,-0.00470573,-0.00788941,-0.00014574,0.00010866,0.011
 53474,-0.00037057,0.15266364,0.36293081,-0.00026898,-0.00037706,0.0056
 3344,-0.00045532,0.00007241,-0.00231836,0.00060498,0.00100323,0.010961
 06,0.00013373,-0.00002482,0.00479704,0.00218925,0.00494303,-0.03924798
 ,-0.00003741,0.00083425,0.00556570,0.00019586,-0.00025387,-0.00052244,
 0.00004003,0.00024595,0.00008791,0.00014120,0.00017249,0.00058575,-0.0
 0002292,-0.00024274,-0.00540853,-0.00036378,-0.00867658,0.02319728,-0.
 00193153,-0.01198846,0.00006154,-0.03036488,0.05990720,0.00111598,0.00
 699466,0.00002303,0.00006456,-0.13681029,0.11385082,0.00242889,-0.0106
 1086,-0.00027789,-0.00025539,0.01970628,-0.01210170,0.00061951,-0.0043
 1591,0.00262241,0.00046407,0.00028377,0.00021840,-0.00065445,0.0040208
 7,-0.00018710,-0.00003363,-0.00231949,0.00415220,-0.00004508,0.0018346
 8,0.00050040,0.00002209,0.16254196,-0.00543939,0.00436053,-0.00018165,
 0.01739252,-0.03027009,-0.00145520,-0.00553141,0.00312914,-0.00015863,
 0.11748967,-0.29212713,-0.00518429,-0.00044536,0.00159813,-0.00051517,
 0.02022686,-0.04611276,-0.00179829,0.00416900,-0.00060854,-0.00038266,
 -0.00047600,-0.00009031,0.00065620,-0.00010866,0.01153474,0.00037057,0
 .00470573,-0.00788941,0.00014574,-0.00050040,-0.00575099,0.00024440,-0
 .15266366,0.36293074,-0.00026898,0.00037706,0.00563344,0.00060498,-0.0
 0100323,0.01096106,-0.00045532,-0.00007241,-0.00231836,0.00218926,-0.0
 0494305,-0.03924798,0.00013374,0.00002482,0.00479704,-0.00003741,-0.00
 083425,0.00556570,0.00019586,0.00025387,-0.00052244,0.00004003,-0.0002
 4595,0.00008791,-0.00002292,0.00024274,-0.00540853,0.00014120,-0.00017
 249,0.00058575,0.00002209,-0.00024440,0.00109007,-0.00036380,0.0086766
 0,0.02319729,-0.00896483,0.,-0.00049909,0.00066964,-0.00868359,-0.0002
 5714,0.00066963,0.00868359,-0.00025714,-0.01275821,-0.02803562,-0.0007
 0844,-0.01275822,0.02803562,-0.00070844,-0.18458420,0.,0.00473218,0.01
 174172,0.,-0.00049892,-0.00127216,0.,0.00133039,0.00464490,0.00662258,
 0.00013971,0.00464490,-0.00662258,0.00013971,-0.00636277,-0.01286871,0
 .00017541,-0.00636276,0.01286871,0.00017541,0.57054110,0.,-0.00285269,
 0.,-0.00227610,-0.00351503,0.00007868,0.00227609,-0.00351503,-0.000078
 69,-0.03293899,0.01232386,0.00174444,0.03293900,0.01232387,-0.00174444
 ,-0.00000002,-0.09257920,0.,0.,0.00003798,0.,0.,0.00000291,0.,-0.00190
 088,-0.00095202,-0.00015237,0.00190088,-0.00095202,0.00015237,-0.00627
 964,-0.00186555,-0.00008693,0.00627964,-0.00186554,0.00008693,0.000000
 02,0.51445666,0.00091422,0.,-0.00191297,-0.00034567,0.00047649,0.00390
 006,-0.00034567,-0.00047649,0.00390006,0.00092775,-0.00031861,0.003048
 72,0.00092775,0.00031861,0.00304872,-0.00327942,0.,-0.06022701,-0.0005
 5474,0.,0.00066555,-0.00008334,0.,-0.00003902,-0.00038139,-0.00047799,
 0.00073821,-0.00038139,0.00047799,0.00073821,-0.00167086,-0.00000385,-
 0.00467106,-0.00167086,0.00000385,-0.00467106,0.01264856,0.,0.46694239
 ,0.00211569,0.00039840,-0.00023216,0.00070697,0.00206481,0.00034433,0.
 00042487,-0.00010621,0.00089213,0.00092314,0.00358453,0.00055041,-0.00
 666918,-0.00872057,-0.00177875,-0.02204021,0.04021871,-0.01919973,-0.0
 0259586,-0.00005771,0.00023154,0.00024847,0.00000291,-0.00029691,-0.00
 095509,-0.00150899,-0.00002486,-0.00200152,0.00186566,0.00022012,0.001
 63200,0.00186333,-0.00048138,-0.00633039,-0.00619301,-0.00266856,-0.12
 480004,0.06744057,-0.03936310,0.12243394,-0.00127774,-0.00016715,0.000
 09979,0.00000244,-0.00066920,-0.00034482,-0.00016837,0.00036422,-0.000
 44766,0.00259615,-0.00757800,-0.00068513,0.00117329,0.00420098,0.00087
 955,0.01623986,-0.01195554,0.01114006,0.00149808,0.00010732,-0.0001040
 8,-0.00015095,-0.00000673,0.00016574,0.00057572,0.00092637,0.00001560,
 0.00089328,-0.00075978,-0.00012694,0.00025228,-0.00054827,0.00051879,-
 0.00971674,0.00147558,-0.00153463,0.07248676,-0.18113223,0.06353793,-0
 .09018510,0.29792470,0.00041647,-0.00025738,0.00006173,-0.00014929,0.0
 0039302,-0.00019113,0.00075783,0.00058434,-0.00019212,0.00023226,0.001
 57253,-0.00005627,-0.00250217,-0.00225809,0.00035790,-0.00570913,0.011
 63306,0.00353824,-0.00046613,-0.00003188,0.00002885,0.00004823,0.00000
 445,-0.00005960,-0.00025735,-0.00040878,-0.00001493,-0.00062609,0.0004
 1312,-0.00006942,0.00023692,0.00025989,0.00006020,-0.00150782,-0.00229
 479,0.00049388,-0.04305593,0.06115226,-0.10397411,0.05596725,-0.118040
 66,0.14675283,0.00211569,-0.00039840,-0.00023216,0.00042487,0.00010620
 ,0.00089212,0.00070697,-0.00206481,0.00034433,-0.00666919,0.00872057,-
 0.00177874,0.00092315,-0.00358453,0.00055041,-0.02204020,-0.04021874,-
 0.01919970,-0.00259585,0.00005771,0.00023154,0.00024847,-0.00000291,-0
 .00029691,-0.00200152,-0.00186566,0.00022012,-0.00095509,0.00150899,-0
 .00002486,-0.00633042,0.00619302,-0.00266857,0.00163200,-0.00186333,-0
 .00048138,-0.12480001,-0.06744060,-0.03936302,0.01934787,0.00535220,0.
 00529075,0.12243394,0.00127774,-0.00016715,-0.00009979,0.00016837,0.00
 036422,0.00044766,-0.00000244,-0.00066920,0.00034482,-0.00117330,0.004
 20098,-0.00087955,-0.00259616,-0.00757800,0.00068513,-0.01623987,-0.01
 195558,-0.01114005,-0.00149808,0.00010732,0.00010408,0.00015095,-0.000
 00673,-0.00016574,-0.00089328,-0.00075978,0.00012694,-0.00057572,0.000
 92637,-0.00001560,0.00971677,0.00147558,0.00153464,-0.00025228,-0.0005
 4827,-0.00051879,-0.07248680,-0.18113241,-0.06353786,-0.00535217,-0.09
 236400,-0.00439358,0.09018510,0.29792502,0.00041646,0.00025738,0.00006
 173,0.00075783,-0.00058434,-0.00019212,-0.00014929,-0.00039302,-0.0001
 9113,-0.00250217,0.00225808,0.00035791,0.00023226,-0.00157253,-0.00005
 627,-0.00570912,-0.01163305,0.00353826,-0.00046613,0.00003188,0.000028
 85,0.00004823,-0.00000445,-0.00005960,-0.00062609,-0.00041312,-0.00006
 942,-0.00025735,0.00040878,-0.00001493,-0.00150783,0.00229480,0.000493
 88,0.00023692,-0.00025989,0.00006020,-0.04305584,-0.06115219,-0.103973
 98,0.00529076,0.00439370,0.01743697,0.05596713,0.11804052,0.14675259,0
 .00273756,0.,0.00079071,-0.00025771,0.00261008,-0.00128890,-0.00025771
 ,-0.00261008,-0.00128890,-0.00103645,0.00840263,0.00098909,-0.00103645
 ,-0.00840263,0.00098909,-0.02865588,0.00000002,0.04009423,-0.00381260,
 0.,-0.00003850,0.00045228,0.,-0.00042631,-0.00124160,-0.00175779,-0.00
 021487,-0.00124160,0.00175779,-0.00021487,0.00203187,0.00363126,0.0007
 9583,0.00203187,-0.00363126,0.00079583,-0.11024869,0.00000003,0.072021
 17,0.01755931,0.00042884,-0.00867578,0.01755932,-0.00042884,-0.0086757
 7,0.10541647,0.,0.00071421,0.,0.00062805,0.00005010,0.00005630,-0.0006
 2805,0.00005010,-0.00005630,0.00095968,-0.00161837,-0.00098530,-0.0009
 5968,-0.00161837,0.00098530,0.00000001,0.01255498,-0.00000001,0.,-0.00
 002875,0.,0.,0.00000057,0.,0.00016051,0.00010897,0.00011014,-0.0001605
 1,0.00010897,-0.00011014,0.00036628,0.00023419,0.00009282,-0.00036628,
 0.00023419,-0.00009282,0.00000003,-0.06878355,-0.00000006,-0.00531516,
 -0.00981826,0.05167248,0.00531517,-0.00981836,-0.05167255,-0.00000005,
 0.07762939,-0.00194163,0.,-0.00050286,0.00019936,-0.00132918,0.0005584
 2,0.00019936,0.00132917,0.00055842,0.00031629,-0.00545549,-0.00054034,
 0.00031629,0.00545549,-0.00054035,0.02259818,-0.00000002,-0.01643351,0
 .00232207,0.,0.00001717,-0.00028412,0.,0.00026736,0.00104691,0.0012999
 9,0.00012936,0.00104691,-0.00129999,0.00012936,-0.00048252,-0.00213324
 ,-0.00030395,-0.00048252,0.00213324,-0.00030395,0.06969959,-0.00000006
 ,-0.20351272,0.00054893,0.04053278,-0.06417303,0.00054894,-0.04053284,
 -0.06417295,-0.09565206,0.00000014,0.34882355\\-0.00029723,0.,-0.00008
 455,0.00016590,0.00009088,0.00001369,0.00016590,-0.00009085,0.00001369
 ,-0.00004941,0.00000023,-0.00001149,-0.00004941,-0.00000025,-0.0000114
 7,0.00008621,0.,-0.00000753,0.00019865,0.,0.00005159,-0.00009402,0.,0.
 00004505,-0.00004431,-0.00005997,0.00000251,-0.00004431,0.00005996,0.0
 0000251,0.00000439,0.00000193,0.00000925,0.00000441,-0.00000191,0.0000
 0926,-0.00006425,0.00000001,0.00013640,-0.00000928,0.00008025,-0.00003
 565,-0.00000926,-0.00008026,-0.00003564,0.00003601,0.,-0.00009762\\\@


 THE ONLY TROUBLE WITH A SURE THING IS THE UNCERTAINTY.
     -- FROM A TEABAG (BELONGING TO W.H.?)
 Job cpu time:       0 days  2 hours 24 minutes 26.8 seconds.
 Elapsed time:       0 days  0 hours  9 minutes  2.3 seconds.
 File lengths (MBytes):  RWF=    394 Int=      0 D2E=      0 Chk=     25 Scr=      1
 Normal termination of Gaussian 16 at Wed Jun  5 17:28:59 2024.
