 Entering Gaussian System, Link 0=g16
 Input=input.com
 Output=input.log
 Initial command:
 /share/apps/g16.b01_avx2/g16/l1.exe "/scratch/Gau-41965.inp" -scrdir="/scratch/"
 Entering Link 1 = /share/apps/g16.b01_avx2/g16/l1.exe PID=     41967.
  
 Copyright (c) 1988-2017, Gaussian, Inc.  All Rights Reserved.
  
 This is part of the Gaussian(R) 16 program.  It is based on
 the Gaussian(R) 09 system (copyright 2009, Gaussian, Inc.),
 the Gaussian(R) 03 system (copyright 2003, Gaussian, Inc.),
 the Gaussian(R) 98 system (copyright 1998, Gaussian, Inc.),
 the Gaussian(R) 94 system (copyright 1995, Gaussian, Inc.),
 the Gaussian 92(TM) system (copyright 1992, Gaussian, Inc.),
 the Gaussian 90(TM) system (copyright 1990, Gaussian, Inc.),
 the Gaussian 88(TM) system (copyright 1988, Gaussian, Inc.),
 the Gaussian 86(TM) system (copyright 1986, Carnegie Mellon
 University), and the Gaussian 82(TM) system (copyright 1983,
 Carnegie Mellon University). Gaussian is a federally registered
 trademark of Gaussian, Inc.
  
 This software contains proprietary and confidential information,
 including trade secrets, belonging to Gaussian, Inc.
  
 This software is provided under written license and may be
 used, copied, transmitted, or stored only in accord with that
 written license.
  
 The following legend is applicable only to US Government
 contracts under FAR:
  
                    RESTRICTED RIGHTS LEGEND
  
 Use, reproduction and disclosure by the US Government is
 subject to restrictions as set forth in subparagraphs (a)
 and (c) of the Commercial Computer Software - Restricted
 Rights clause in FAR 52.227-19.
  
 Gaussian, Inc.
 340 Quinnipiac St., Bldg. 40, Wallingford CT 06492
  
  
 ---------------------------------------------------------------
 Warning -- This program may not be used in any manner that
 competes with the business of Gaussian, Inc. or will provide
 assistance to any competitor of Gaussian, Inc.  The licensee
 of this program is prohibited from giving any competitor of
 Gaussian, Inc. access to this program.  By using this program,
 the user acknowledges that Gaussian, Inc. is engaged in the
 business of creating and licensing software in the field of
 computational chemistry and represents and warrants to the
 licensee that it is not a competitor of Gaussian, Inc. and that
 it will not use this program in any manner prohibited above.
 ---------------------------------------------------------------
  

 Cite this work as:
 Gaussian 16, Revision B.01,
 M. J. Frisch, G. W. Trucks, H. B. Schlegel, G. E. Scuseria, 
 M. A. Robb, J. R. Cheeseman, G. Scalmani, V. Barone, 
 G. A. Petersson, H. Nakatsuji, X. Li, M. Caricato, A. V. Marenich, 
 J. Bloino, B. G. Janesko, R. Gomperts, B. Mennucci, H. P. Hratchian, 
 J. V. Ortiz, A. F. Izmaylov, J. L. Sonnenberg, D. Williams-Young, 
 F. Ding, F. Lipparini, F. Egidi, J. Goings, B. Peng, A. Petrone, 
 T. Henderson, D. Ranasinghe, V. G. Zakrzewski, J. Gao, N. Rega, 
 G. Zheng, W. Liang, M. Hada, M. Ehara, K. Toyota, R. Fukuda, 
 J. Hasegawa, M. Ishida, T. Nakajima, Y. Honda, O. Kitao, H. Nakai, 
 T. Vreven, K. Throssell, J. A. Montgomery, Jr., J. E. Peralta, 
 F. Ogliaro, M. J. Bearpark, J. J. Heyd, E. N. Brothers, K. N. Kudin, 
 V. N. Staroverov, T. A. Keith, R. Kobayashi, J. Normand, 
 K. Raghavachari, A. P. Rendell, J. C. Burant, S. S. Iyengar, 
 J. Tomasi, M. Cossi, J. M. Millam, M. Klene, C. Adamo, R. Cammi, 
 J. W. Ochterski, R. L. Martin, K. Morokuma, O. Farkas, 
 J. B. Foresman, and D. J. Fox, Gaussian, Inc., Wallingford CT, 2016.
 
 ******************************************
 Gaussian 16:  ES64L-G16RevB.01 20-Dec-2017
                 3-May-2024 
 ******************************************
 %nproc=16
 Will use up to   16 processors via shared memory.
 %mem=60GB
 ----------------------------------------------------------------------
 #P PBE1PBE/def2TZVP opt freq EmpiricalDispersion=GD3 Int=(grid=99590) 
 scrf=(iefpcm, solvent=water)
 ----------------------------------------------------------------------
 1/18=20,19=15,26=6,38=1/1,3;
 2/9=110,12=2,17=6,18=5,40=1/2;
 3/5=44,7=101,11=2,25=1,30=1,70=2201,71=1,72=1,74=-13,75=99590,124=31/1,2,3;
 4//1;
 5/5=2,38=5,53=1/2;
 6/7=2,8=2,9=2,10=2,28=1/1;
 7//1,2,3,16;
 1/18=20,19=15,26=6/3(2);
 2/9=110/2;
 99//99;
 2/9=110/2;
 3/5=44,7=101,11=2,25=1,30=1,70=2205,71=1,72=1,74=-13,75=99590,124=31/1,2,3;
 4/5=5,16=3,69=1/1;
 5/5=2,38=5,53=1/2;
 7//1,2,3,16;
 1/18=20,19=15,26=6/3(-5);
 2/9=110/2;
 6/7=2,8=2,9=2,10=2,19=2,28=1/1;
 99/9=1/99;
 Leave Link    1 at Fri May  3 19:27:00 2024, MaxMem=  8053063680 cpu:               0.4 elap:               0.0
 (Enter /share/apps/g16.b01_avx2/g16/l101.exe)
 ------------------------
 tfp-pyridine-OH_product2
 ------------------------
 Symbolic Z-matrix:
 Charge =  0 Multiplicity = 1
 C                    -1.91532  -1.56973   0.00097 
 C                    -0.51395  -1.54795  -0.00008 
 C                     0.1518   -0.3214   -0.00079 
 C                    -0.60162   0.85334  -0.00043 
 C                    -2.00085   0.77287   0.00063 
 N                    -2.61452  -0.4224    0.0013 
 O                     1.58085  -0.26922  -0.00187 
 H                     1.90131  -0.25739   0.90299 
 F                     0.01162   2.05601  -0.00109 
 F                     0.18536  -2.7027   -0.0004 
 F                    -2.56725  -2.75189   0.00166 
 F                    -2.73725   1.90434   0.00098 
 
 ITRead=  0  0  0  0  0  0  0  0  0  0  0  0
 MicOpt= -1 -1 -1 -1 -1 -1 -1 -1 -1 -1 -1 -1
 NAtoms=     12 NQM=       12 NQMF=       0 NMMI=      0 NMMIF=      0
                NMic=       0 NMicF=      0.
                    Isotopes and Nuclear Properties:
 (Nuclear quadrupole moments (NQMom) in fm**2, nuclear magnetic moments (NMagM)
  in nuclear magnetons)

  Atom         1           2           3           4           5           6           7           8           9          10
 IAtWgt=          12          12          12          12          12          14          16           1          19          19
 AtmWgt=  12.0000000  12.0000000  12.0000000  12.0000000  12.0000000  14.0030740  15.9949146   1.0078250  18.9984032  18.9984032
 NucSpn=           0           0           0           0           0           2           0           1           1           1
 AtZEff=  -0.0000000  -0.0000000  -0.0000000  -0.0000000  -0.0000000  -0.0000000  -0.0000000  -0.0000000  -0.0000000  -0.0000000
 NQMom=    0.0000000   0.0000000   0.0000000   0.0000000   0.0000000   2.0440000   0.0000000   0.0000000   0.0000000   0.0000000
 NMagM=    0.0000000   0.0000000   0.0000000   0.0000000   0.0000000   0.4037610   0.0000000   2.7928460   2.6288670   2.6288670
 AtZNuc=   6.0000000   6.0000000   6.0000000   6.0000000   6.0000000   7.0000000   8.0000000   1.0000000   9.0000000   9.0000000

  Atom        11          12
 IAtWgt=          19          19
 AtmWgt=  18.9984032  18.9984032
 NucSpn=           1           1
 AtZEff=  -0.0000000  -0.0000000
 NQMom=    0.0000000   0.0000000
 NMagM=    2.6288670   2.6288670
 AtZNuc=   9.0000000   9.0000000
 Leave Link  101 at Fri May  3 19:27:00 2024, MaxMem=  8053063680 cpu:               3.1 elap:               0.2
 (Enter /share/apps/g16.b01_avx2/g16/l103.exe)

 GradGradGradGradGradGradGradGradGradGradGradGradGradGradGradGradGradGrad
 Berny optimization.
 Initialization pass.
                           ----------------------------
                           !    Initial Parameters    !
                           ! (Angstroms and Degrees)  !
 --------------------------                            --------------------------
 ! Name  Definition              Value          Derivative Info.                !
 --------------------------------------------------------------------------------
 ! R1    R(1,2)                  1.4015         estimate D2E/DX2                !
 ! R2    R(1,6)                  1.3436         estimate D2E/DX2                !
 ! R3    R(1,11)                 1.35           estimate D2E/DX2                !
 ! R4    R(2,3)                  1.3956         estimate D2E/DX2                !
 ! R5    R(2,10)                 1.35           estimate D2E/DX2                !
 ! R6    R(3,4)                  1.3956         estimate D2E/DX2                !
 ! R7    R(3,7)                  1.43           estimate D2E/DX2                !
 ! R8    R(4,5)                  1.4015         estimate D2E/DX2                !
 ! R9    R(4,9)                  1.35           estimate D2E/DX2                !
 ! R10   R(5,6)                  1.3436         estimate D2E/DX2                !
 ! R11   R(5,12)                 1.35           estimate D2E/DX2                !
 ! R12   R(7,8)                  0.96           estimate D2E/DX2                !
 ! A1    A(2,1,6)              120.468          estimate D2E/DX2                !
 ! A2    A(2,1,11)             119.766          estimate D2E/DX2                !
 ! A3    A(6,1,11)             119.766          estimate D2E/DX2                !
 ! A4    A(1,2,3)              119.383          estimate D2E/DX2                !
 ! A5    A(1,2,10)             120.3085         estimate D2E/DX2                !
 ! A6    A(3,2,10)             120.3085         estimate D2E/DX2                !
 ! A7    A(2,3,4)              118.8332         estimate D2E/DX2                !
 ! A8    A(2,3,7)              120.5834         estimate D2E/DX2                !
 ! A9    A(4,3,7)              120.5834         estimate D2E/DX2                !
 ! A10   A(3,4,5)              119.383          estimate D2E/DX2                !
 ! A11   A(3,4,9)              120.3085         estimate D2E/DX2                !
 ! A12   A(5,4,9)              120.3085         estimate D2E/DX2                !
 ! A13   A(4,5,6)              120.468          estimate D2E/DX2                !
 ! A14   A(4,5,12)             119.766          estimate D2E/DX2                !
 ! A15   A(6,5,12)             119.766          estimate D2E/DX2                !
 ! A16   A(1,6,5)              121.4649         estimate D2E/DX2                !
 ! A17   A(3,7,8)              109.4712         estimate D2E/DX2                !
 ! D1    D(6,1,2,3)             -0.0001         estimate D2E/DX2                !
 ! D2    D(6,1,2,10)           180.0            estimate D2E/DX2                !
 ! D3    D(11,1,2,3)           179.9999         estimate D2E/DX2                !
 ! D4    D(11,1,2,10)            0.0            estimate D2E/DX2                !
 ! D5    D(2,1,6,5)              0.0003         estimate D2E/DX2                !
 ! D6    D(11,1,6,5)          -179.9998         estimate D2E/DX2                !
 ! D7    D(1,2,3,4)              0.0            estimate D2E/DX2                !
 ! D8    D(1,2,3,7)           -180.0            estimate D2E/DX2                !
 ! D9    D(10,2,3,4)           179.9999         estimate D2E/DX2                !
 ! D10   D(10,2,3,7)            -0.0001         estimate D2E/DX2                !
 ! D11   D(2,3,4,5)              0.0            estimate D2E/DX2                !
 ! D12   D(2,3,4,9)            179.9999         estimate D2E/DX2                !
 ! D13   D(7,3,4,5)            180.0            estimate D2E/DX2                !
 ! D14   D(7,3,4,9)             -0.0001         estimate D2E/DX2                !
 ! D15   D(2,3,7,8)            -90.0            estimate D2E/DX2                !
 ! D16   D(4,3,7,8)             90.0            estimate D2E/DX2                !
 ! D17   D(3,4,5,6)              0.0001         estimate D2E/DX2                !
 ! D18   D(3,4,5,12)          -179.9999         estimate D2E/DX2                !
 ! D19   D(9,4,5,6)           -179.9998         estimate D2E/DX2                !
 ! D20   D(9,4,5,12)             0.0002         estimate D2E/DX2                !
 ! D21   D(4,5,6,1)             -0.0003         estimate D2E/DX2                !
 ! D22   D(12,5,6,1)           179.9998         estimate D2E/DX2                !
 --------------------------------------------------------------------------------
 Trust Radius=3.00D-01 FncErr=5.00D-06 GrdErr=5.00D-06 EigMax=2.50D+02 EigMin=1.00D-04
 Number of steps in this run=     61 maximum allowed number of steps=    100.
 GradGradGradGradGradGradGradGradGradGradGradGradGradGradGradGradGradGrad

 Leave Link  103 at Fri May  3 19:27:00 2024, MaxMem=  8053063680 cpu:               0.1 elap:               0.0
 (Enter /share/apps/g16.b01_avx2/g16/l202.exe)
                          Input orientation:                          
 ---------------------------------------------------------------------
 Center     Atomic      Atomic             Coordinates (Angstroms)
 Number     Number       Type             X           Y           Z
 ---------------------------------------------------------------------
      1          6           0       -1.915324   -1.569731    0.000972
      2          6           0       -0.513952   -1.547949   -0.000078
      3          6           0        0.151800   -0.321399   -0.000788
      4          6           0       -0.601625    0.853336   -0.000427
      5          6           0       -2.000854    0.772867    0.000632
      6          7           0       -2.614519   -0.422399    0.001299
      7          8           0        1.580848   -0.269223   -0.001865
      8          1           0        1.901311   -0.257392    0.902990
      9          9           0        0.011621    2.056012   -0.001090
     10          9           0        0.185365   -2.702702   -0.000403
     11          9           0       -2.567249   -2.751888    0.001661
     12          9           0       -2.737251    1.904335    0.000984
 ---------------------------------------------------------------------
                    Distance matrix (angstroms):
                    1          2          3          4          5
     1  C    0.000000
     2  C    1.401542   0.000000
     3  C    2.414817   1.395583   0.000000
     4  C    2.756277   2.402885   1.395583   0.000000
     5  C    2.344160   2.756277   2.414817   1.401542   0.000000
     6  N    1.343595   2.383117   2.768164   2.383117   1.343595
     7  O    3.730221   2.454247   1.430000   2.454247   3.730221
     8  H    4.135526   2.883499   1.970203   2.883499   4.135526
     9  F    4.105988   3.642082   2.381540   1.350000   2.386738
    10  F    2.386738   1.350000   2.381540   3.642082   4.105988
    11  F    1.350000   2.380231   3.646987   4.106254   3.569972
    12  F    3.569972   4.106254   3.646987   2.380231   1.350000
                    6          7          8          9         10
     6  N    0.000000
     7  O    4.198164   0.000000
     8  H    4.607928   0.960000   0.000000
     9  F    3.610975   2.805208   3.120918   0.000000
    10  F    3.610975   2.805208   3.120919   4.761885   0.000000
    11  F    2.329969   4.834288   5.196435   5.455866   2.753054
    12  F    2.329969   4.834288   5.196435   2.753054   5.455866
                   11         12
    11  F    0.000000
    12  F    4.659325   0.000000
 Stoichiometry    C5HF4NO
 Framework group  C1[X(C5HF4NO)]
 Deg. of freedom    30
 Full point group                 C1      NOp   1
 Largest Abelian subgroup         C1      NOp   1
 Largest concise Abelian subgroup C1      NOp   1
                         Standard orientation:                         
 ---------------------------------------------------------------------
 Center     Atomic      Atomic             Coordinates (Angstroms)
 Number     Number       Type             X           Y           Z
 ---------------------------------------------------------------------
      1          6           0        1.172080   -0.995371    0.004019
      2          6           0        1.201442    0.405702   -0.017175
      3          6           0       -0.000000    1.115683   -0.027916
      4          6           0       -1.201442    0.405702   -0.017176
      5          6           0       -1.172080   -0.995371    0.004018
      6          7           0        0.000000   -1.652164    0.013957
      7          8           0       -0.000000    2.545519   -0.049547
      8          1           0       -0.000000    2.879173    0.850606
      9          9           0       -2.380942    1.062346   -0.027108
     10          9           0        2.380942    1.062346   -0.027110
     11          9           0        2.329663   -1.689915    0.014524
     12          9           0       -2.329663   -1.689916    0.014522
 ---------------------------------------------------------------------
 Rotational constants (GHZ):           1.4648799           1.0313126           0.6063838
 Leave Link  202 at Fri May  3 19:27:00 2024, MaxMem=  8053063680 cpu:               0.0 elap:               0.0
 (Enter /share/apps/g16.b01_avx2/g16/l301.exe)
 Standard basis: def2TZVP (5D, 7F)
 Ernie: Thresh=  0.10000D-02 Tol=  0.10000D-05 Strict=F.
 There are   402 symmetry adapted cartesian basis functions of A   symmetry.
 There are   347 symmetry adapted basis functions of A   symmetry.
   347 basis functions,   569 primitive gaussians,   402 cartesian basis functions
    41 alpha electrons       41 beta electrons
       nuclear repulsion energy       621.3858652716 Hartrees.
 IExCor= 1009 DFT=T Ex+Corr=PBE1PBE ExCW=0 ScaHFX=  0.250000
 ScaDFX=  0.750000  0.750000  1.000000  1.000000 ScalE2=  1.000000  1.000000
 IRadAn=  99590 IRanWt=     -1 IRanGd=            0 ICorTp=0 IEmpDi=131
 NAtoms=   12 NActive=   12 NUniq=   12 SFac= 1.00D+00 NAtFMM=   60 NAOKFM=F Big=F
 Integral buffers will be    131072 words long.
 Raffenetti 2 integral format.
 Two-electron integral symmetry is turned on.
 R6Disp:  Grimme-D3 Dispersion energy=       -0.0049111699 Hartrees.
 Nuclear repulsion after empirical dispersion term =      621.3809541016 Hartrees.
 ------------------------------------------------------------------------------
 Polarizable Continuum Model (PCM)
 =================================
 Model                : PCM.
 Atomic radii         : UFF (Universal Force Field).
 Polarization charges : Total charges.
 Charge compensation  : None.
 Solution method      : On-the-fly selection.
 Cavity type          : Scaled VdW (van der Waals Surface) (Alpha=1.100).
 Cavity algorithm     : GePol (No added spheres)
                        Default sphere list used, NSphG=   12.
                        Lebedev-Laikov grids with approx.  5.0 points / Ang**2.
                        Smoothing algorithm: York/Karplus (Gamma=1.0000).
                        Polarization charges: spherical gaussians, with
                                              point-specific exponents (IZeta= 3).
                        Self-potential: point-specific (ISelfS= 7).
                        Self-field    : sphere-specific E.n sum rule (ISelfD= 2).
 1st derivatives      : Analytical E(r).r(x)/FMM algorithm (CHGder, D1EAlg=3).
                        Cavity 1st derivative terms included.
 Solvent              : Water, Eps=  78.355300 Eps(inf)=   1.777849
 ------------------------------------------------------------------------------
 Spheres list:
 ISph  on   Nord     Re0    Alpha      Xe            Ye            Ze
    1   C      1    1.9255  1.100      1.172080     -0.995371      0.004019
    2   C      2    1.9255  1.100      1.201442      0.405702     -0.017175
    3   C      3    1.9255  1.100     -0.000000      1.115683     -0.027916
    4   C      4    1.9255  1.100     -1.201442      0.405702     -0.017176
    5   C      5    1.9255  1.100     -1.172080     -0.995371      0.004018
    6   N      6    1.8300  1.100      0.000000     -1.652164      0.013957
    7   O      7    1.7500  1.100     -0.000000      2.545519     -0.049547
    8   H      8    1.4430  1.100     -0.000000      2.879173      0.850606
    9   F      9    1.6820  1.100     -2.380942      1.062346     -0.027108
   10   F     10    1.6820  1.100      2.380942      1.062346     -0.027110
   11   F     11    1.6820  1.100      2.329663     -1.689915      0.014524
   12   F     12    1.6820  1.100     -2.329663     -1.689916      0.014522
 ------------------------------------------------------------------------------
 GePol: Number of generator spheres                  =      12
 GePol: Total number of spheres                      =      12
 GePol: Number of exposed spheres                    =      12 (100.00%)
 GePol: Number of points                             =    1377
 GePol: Average weight of points                     =       0.13
 GePol: Minimum weight of points                     =   0.38D-07
 GePol: Maximum weight of points                     =    0.20299
 GePol: Number of points with low weight             =      54
 GePol: Fraction of low-weight points (<1% of avg)   =       3.92%
 GePol: Cavity surface area                          =    176.849 Ang**2
 GePol: Cavity volume                                =    170.198 Ang**3
 Leave Link  301 at Fri May  3 19:27:00 2024, MaxMem=  8053063680 cpu:               0.3 elap:               0.0
 (Enter /share/apps/g16.b01_avx2/g16/l302.exe)
 NPDir=0 NMtPBC=     1 NCelOv=     1 NCel=       1 NClECP=     1 NCelD=      1
         NCelK=      1 NCelE2=     1 NClLst=     1 CellRange=     0.0.
 One-electron integrals computed using PRISM.
 One-electron integral symmetry used in STVInt
   1 Symmetry operations used in ECPInt.
 ECPInt:  NShTT=    7875 NPrTT=   25896 LenC2=    7376 LenP2D=   18404.
 LDataN:  DoStor=T MaxTD1= 6 Len=  172
 NBasis=   347 RedAO= T EigKep=  5.33D-05  NBF=   347
 NBsUse=   347 1.00D-06 EigRej= -1.00D+00 NBFU=   347
 Precomputing XC quadrature grid using
 IXCGrd= 4 IRadAn=       99590 IRanWt=          -1 IRanGd=           0 AccXCQ= 0.00D+00.
 Generated NRdTot=       0 NPtTot=           0 NUsed=           0 NTot=          32
 NSgBfM=   397   396   397   397   397 MxSgAt=    12 MxSgA2=    12.
 Leave Link  302 at Fri May  3 19:27:00 2024, MaxMem=  8053063680 cpu:               1.8 elap:               0.1
 (Enter /share/apps/g16.b01_avx2/g16/l303.exe)
 DipDrv:  MaxL=1.
 Leave Link  303 at Fri May  3 19:27:00 2024, MaxMem=  8053063680 cpu:               0.3 elap:               0.0
 (Enter /share/apps/g16.b01_avx2/g16/l401.exe)
 ExpMin= 9.52D-02 ExpMax= 3.55D+04 ExpMxC= 1.21D+03 IAcc=4 IRadAn=    199590 AccDes= 0.00D+00
 Harris functional with IExCor= 1009 and IRadAn=  199590 diagonalized for initial guess.
 HarFok:  IExCor= 1009 AccDes= 0.00D+00 IRadAn=    199590 IDoV= 1 UseB2=F ITyADJ=14
 ICtDFT=  3500011 ScaDFX=  1.000000  1.000000  1.000000  1.000000
 FoFCou: FMM=F IPFlag=           0 FMFlag=      100000 FMFlg1=           0
         NFxFlg=           0 DoJE=T BraDBF=F KetDBF=T FulRan=T
         wScrn=  0.000000 ICntrl=       500 IOpCl=  0 I1Cent=   200000004 NGrid=           0
         NMat0=    1 NMatS0=      1 NMatT0=    0 NMatD0=    1 NMtDS0=    0 NMtDT0=    0
 Petite list used in FoFCou.
 Harris En= -720.021050968907    
 JPrj=0 DoOrth=F DoCkMO=F.
 Leave Link  401 at Fri May  3 19:27:01 2024, MaxMem=  8053063680 cpu:              15.4 elap:               1.0
 (Enter /share/apps/g16.b01_avx2/g16/l502.exe)
 Keep R1 ints in memory in canonical form, NReq=1855508542.
 FoFCou: FMM=F IPFlag=           0 FMFlag=           0 FMFlg1=           0
         NFxFlg=           0 DoJE=F BraDBF=F KetDBF=F FulRan=T
         wScrn=  0.000000 ICntrl=       600 IOpCl=  0 I1Cent=           0 NGrid=           0
         NMat0=    1 NMatS0=  60378 NMatT0=    0 NMatD0=    1 NMtDS0=    0 NMtDT0=    0
 Symmetry not used in FoFCou.
 Two-electron integral symmetry not used.
 Closed shell SCF:
 Using DIIS extrapolation, IDIIS=  1040.
 NGot=  8053063680 LenX=  6229949011 LenY=  6229786966
 Requested convergence on RMS density matrix=1.00D-08 within 128 cycles.
 Requested convergence on MAX density matrix=1.00D-06.
 Requested convergence on             energy=1.00D-06.
 No special actions if energy rises.

 Cycle   1  Pass 1  IDiag  1:
 Inv3:  Mode=1 IEnd=     5688387.
 Iteration    1 A*A^-1 deviation from unit magnitude is 2.78D-15 for    374.
 Iteration    1 A*A^-1 deviation from orthogonality  is 1.80D-15 for    793     74.
 Iteration    1 A^-1*A deviation from unit magnitude is 3.22D-15 for    632.
 Iteration    1 A^-1*A deviation from orthogonality  is 3.55D-15 for   1171    190.
 E= -719.926487633636    
 DIIS: error= 1.31D-02 at cycle   1 NSaved=   1.
 NSaved= 1 IEnMin= 1 EnMin= -719.926487633636     IErMin= 1 ErrMin= 1.31D-02
 ErrMax= 1.31D-02  0.00D+00 EMaxC= 1.00D-01 BMatC= 1.54D-01 BMatP= 1.54D-01
 IDIUse=3 WtCom= 8.69D-01 WtEn= 1.31D-01
 Coeff-Com:  0.100D+01
 Coeff-En:   0.100D+01
 Coeff:      0.100D+01
 Gap=     0.249 Goal=   None    Shift=    0.000
 GapD=    0.249 DampG=1.000 DampE=0.500 DampFc=0.5000 IDamp=-1.
 Damping current iteration by 5.00D-01
 RMSDP=2.05D-03 MaxDP=8.47D-02              OVMax= 1.29D-01

 Cycle   2  Pass 1  IDiag  1:
 E= -719.960971045489     Delta-E=       -0.034483411853 Rises=F Damp=T
 DIIS: error= 5.13D-03 at cycle   2 NSaved=   2.
 NSaved= 2 IEnMin= 2 EnMin= -719.960971045489     IErMin= 2 ErrMin= 5.13D-03
 ErrMax= 5.13D-03  0.00D+00 EMaxC= 1.00D-01 BMatC= 1.71D-02 BMatP= 1.54D-01
 IDIUse=3 WtCom= 9.49D-01 WtEn= 5.13D-02
 Coeff-Com:  0.481D-01 0.952D+00
 Coeff-En:   0.180D+00 0.820D+00
 Coeff:      0.549D-01 0.945D+00
 Gap=     0.318 Goal=   None    Shift=    0.000
 RMSDP=7.47D-04 MaxDP=5.23D-02 DE=-3.45D-02 OVMax= 8.70D-02

 Cycle   3  Pass 1  IDiag  1:
 E= -720.006980992238     Delta-E=       -0.046009946749 Rises=F Damp=F
 DIIS: error= 4.05D-03 at cycle   3 NSaved=   3.
 NSaved= 3 IEnMin= 3 EnMin= -720.006980992238     IErMin= 3 ErrMin= 4.05D-03
 ErrMax= 4.05D-03  0.00D+00 EMaxC= 1.00D-01 BMatC= 9.22D-03 BMatP= 1.71D-02
 IDIUse=3 WtCom= 9.60D-01 WtEn= 4.05D-02
 Coeff-Com: -0.997D-01 0.424D+00 0.676D+00
 Coeff-En:   0.000D+00 0.000D+00 0.100D+01
 Coeff:     -0.957D-01 0.407D+00 0.689D+00
 Gap=     0.229 Goal=   None    Shift=    0.000
 RMSDP=2.54D-04 MaxDP=1.00D-02 DE=-4.60D-02 OVMax= 2.60D-02

 Cycle   4  Pass 1  IDiag  1:
 E= -720.013099447130     Delta-E=       -0.006118454891 Rises=F Damp=F
 DIIS: error= 1.84D-03 at cycle   4 NSaved=   4.
 NSaved= 4 IEnMin= 4 EnMin= -720.013099447130     IErMin= 4 ErrMin= 1.84D-03
 ErrMax= 1.84D-03  0.00D+00 EMaxC= 1.00D-01 BMatC= 1.17D-03 BMatP= 9.22D-03
 IDIUse=3 WtCom= 9.82D-01 WtEn= 1.84D-02
 Coeff-Com: -0.457D-01 0.133D+00 0.351D+00 0.562D+00
 Coeff-En:   0.000D+00 0.000D+00 0.876D-01 0.912D+00
 Coeff:     -0.449D-01 0.130D+00 0.346D+00 0.568D+00
 Gap=     0.229 Goal=   None    Shift=    0.000
 RMSDP=9.29D-05 MaxDP=3.36D-03 DE=-6.12D-03 OVMax= 1.37D-02

 Cycle   5  Pass 1  IDiag  1:
 E= -720.014014322683     Delta-E=       -0.000914875553 Rises=F Damp=F
 DIIS: error= 7.28D-04 at cycle   5 NSaved=   5.
 NSaved= 5 IEnMin= 5 EnMin= -720.014014322683     IErMin= 5 ErrMin= 7.28D-04
 ErrMax= 7.28D-04  0.00D+00 EMaxC= 1.00D-01 BMatC= 1.57D-04 BMatP= 1.17D-03
 IDIUse=3 WtCom= 9.93D-01 WtEn= 7.28D-03
 Coeff-Com: -0.180D-01 0.395D-01 0.145D+00 0.339D+00 0.495D+00
 Coeff-En:   0.000D+00 0.000D+00 0.000D+00 0.821D-01 0.918D+00
 Coeff:     -0.179D-01 0.392D-01 0.144D+00 0.337D+00 0.498D+00
 Gap=     0.229 Goal=   None    Shift=    0.000
 RMSDP=3.22D-05 MaxDP=1.12D-03 DE=-9.15D-04 OVMax= 5.02D-03

 Cycle   6  Pass 1  IDiag  1:
 E= -720.014159394371     Delta-E=       -0.000145071688 Rises=F Damp=F
 DIIS: error= 9.04D-05 at cycle   6 NSaved=   6.
 NSaved= 6 IEnMin= 6 EnMin= -720.014159394371     IErMin= 6 ErrMin= 9.04D-05
 ErrMax= 9.04D-05  0.00D+00 EMaxC= 1.00D-01 BMatC= 3.47D-06 BMatP= 1.57D-04
 IDIUse=1 WtCom= 1.00D+00 WtEn= 0.00D+00
 Coeff-Com: -0.543D-02 0.999D-02 0.416D-01 0.109D+00 0.212D+00 0.633D+00
 Coeff:     -0.543D-02 0.999D-02 0.416D-01 0.109D+00 0.212D+00 0.633D+00
 Gap=     0.229 Goal=   None    Shift=    0.000
 RMSDP=5.28D-06 MaxDP=2.02D-04 DE=-1.45D-04 OVMax= 6.85D-04

 Cycle   7  Pass 1  IDiag  1:
 E= -720.014161883735     Delta-E=       -0.000002489364 Rises=F Damp=F
 DIIS: error= 3.65D-05 at cycle   7 NSaved=   7.
 NSaved= 7 IEnMin= 7 EnMin= -720.014161883735     IErMin= 7 ErrMin= 3.65D-05
 ErrMax= 3.65D-05  0.00D+00 EMaxC= 1.00D-01 BMatC= 5.65D-07 BMatP= 3.47D-06
 IDIUse=1 WtCom= 1.00D+00 WtEn= 0.00D+00
 Coeff-Com: -0.179D-02 0.283D-02 0.134D-01 0.392D-01 0.857D-01 0.335D+00
 Coeff-Com:  0.526D+00
 Coeff:     -0.179D-02 0.283D-02 0.134D-01 0.392D-01 0.857D-01 0.335D+00
 Coeff:      0.526D+00
 Gap=     0.229 Goal=   None    Shift=    0.000
 RMSDP=2.21D-06 MaxDP=1.21D-04 DE=-2.49D-06 OVMax= 2.10D-04

 Cycle   8  Pass 1  IDiag  1:
 E= -720.014162277006     Delta-E=       -0.000000393271 Rises=F Damp=F
 DIIS: error= 8.85D-06 at cycle   8 NSaved=   8.
 NSaved= 8 IEnMin= 8 EnMin= -720.014162277006     IErMin= 8 ErrMin= 8.85D-06
 ErrMax= 8.85D-06  0.00D+00 EMaxC= 1.00D-01 BMatC= 4.44D-08 BMatP= 5.65D-07
 IDIUse=1 WtCom= 1.00D+00 WtEn= 0.00D+00
 Coeff-Com:  0.143D-03-0.416D-03-0.151D-02-0.340D-02-0.489D-02 0.439D-02
 Coeff-Com:  0.218D+00 0.787D+00
 Coeff:      0.143D-03-0.416D-03-0.151D-02-0.340D-02-0.489D-02 0.439D-02
 Coeff:      0.218D+00 0.787D+00
 Gap=     0.229 Goal=   None    Shift=    0.000
 RMSDP=6.64D-07 MaxDP=2.84D-05 DE=-3.93D-07 OVMax= 5.28D-05

 Cycle   9  Pass 1  IDiag  1:
 E= -720.014162306482     Delta-E=       -0.000000029476 Rises=F Damp=F
 DIIS: error= 3.00D-06 at cycle   9 NSaved=   9.
 NSaved= 9 IEnMin= 9 EnMin= -720.014162306482     IErMin= 9 ErrMin= 3.00D-06
 ErrMax= 3.00D-06  0.00D+00 EMaxC= 1.00D-01 BMatC= 2.94D-09 BMatP= 4.44D-08
 IDIUse=1 WtCom= 1.00D+00 WtEn= 0.00D+00
 Coeff-Com:  0.108D-03-0.268D-03-0.982D-03-0.239D-02-0.417D-02-0.686D-02
 Coeff-Com:  0.991D-01 0.405D+00 0.511D+00
 Coeff:      0.108D-03-0.268D-03-0.982D-03-0.239D-02-0.417D-02-0.686D-02
 Coeff:      0.991D-01 0.405D+00 0.511D+00
 Gap=     0.229 Goal=   None    Shift=    0.000
 RMSDP=1.31D-07 MaxDP=7.44D-06 DE=-2.95D-08 OVMax= 1.99D-05

 Cycle  10  Pass 1  IDiag  1:
 E= -720.014162308829     Delta-E=       -0.000000002347 Rises=F Damp=F
 DIIS: error= 3.83D-07 at cycle  10 NSaved=  10.
 NSaved=10 IEnMin=10 EnMin= -720.014162308829     IErMin=10 ErrMin= 3.83D-07
 ErrMax= 3.83D-07  0.00D+00 EMaxC= 1.00D-01 BMatC= 1.09D-10 BMatP= 2.94D-09
 IDIUse=1 WtCom= 1.00D+00 WtEn= 0.00D+00
 Coeff-Com:  0.214D-04-0.432D-04-0.147D-03-0.442D-03-0.990D-03-0.400D-02
 Coeff-Com:  0.384D-02 0.274D-01 0.162D+00 0.813D+00
 Coeff:      0.214D-04-0.432D-04-0.147D-03-0.442D-03-0.990D-03-0.400D-02
 Coeff:      0.384D-02 0.274D-01 0.162D+00 0.813D+00
 Gap=     0.229 Goal=   None    Shift=    0.000
 RMSDP=4.10D-08 MaxDP=1.39D-06 DE=-2.35D-09 OVMax= 3.63D-06

 Cycle  11  Pass 1  IDiag  1:
 E= -720.014162308926     Delta-E=       -0.000000000097 Rises=F Damp=F
 DIIS: error= 1.33D-07 at cycle  11 NSaved=  11.
 NSaved=11 IEnMin=11 EnMin= -720.014162308926     IErMin=11 ErrMin= 1.33D-07
 ErrMax= 1.33D-07  0.00D+00 EMaxC= 1.00D-01 BMatC= 1.04D-11 BMatP= 1.09D-10
 IDIUse=1 WtCom= 1.00D+00 WtEn= 0.00D+00
 Coeff-Com:  0.349D-05-0.421D-05-0.366D-05-0.406D-04-0.148D-03-0.121D-02
 Coeff-Com: -0.346D-02-0.117D-01 0.311D-01 0.323D+00 0.662D+00
 Coeff:      0.349D-05-0.421D-05-0.366D-05-0.406D-04-0.148D-03-0.121D-02
 Coeff:     -0.346D-02-0.117D-01 0.311D-01 0.323D+00 0.662D+00
 Gap=     0.229 Goal=   None    Shift=    0.000
 RMSDP=8.53D-09 MaxDP=2.56D-07 DE=-9.66D-11 OVMax= 5.63D-07

 Error on total polarization charges =  0.00645
 SCF Done:  E(RPBE1PBE) =  -720.014162309     A.U. after   11 cycles
            NFock= 11  Conv=0.85D-08     -V/T= 2.0047
 KE= 7.166752261178D+02 PE=-2.943682664284D+03 EE= 8.856123217553D+02
 Leave Link  502 at Fri May  3 19:27:22 2024, MaxMem=  8053063680 cpu:             221.2 elap:              20.9
 (Enter /share/apps/g16.b01_avx2/g16/l601.exe)
 Copying SCF densities to generalized density rwf, IOpCl= 0 IROHF=0.

 **********************************************************************

            Population analysis using the SCF Density.

 **********************************************************************

 Orbital symmetries:
       Occupied  (A) (A) (A) (A) (A) (A) (A) (A) (A) (A) (A) (A)
                 (A) (A) (A) (A) (A) (A) (A) (A) (A) (A) (A) (A)
                 (A) (A) (A) (A) (A) (A) (A) (A) (A) (A) (A) (A)
                 (A) (A) (A) (A) (A)
       Virtual   (A) (A) (A) (A) (A) (A) (A) (A) (A) (A) (A) (A)
                 (A) (A) (A) (A) (A) (A) (A) (A) (A) (A) (A) (A)
                 (A) (A) (A) (A) (A) (A) (A) (A) (A) (A) (A) (A)
                 (A) (A) (A) (A) (A) (A) (A) (A) (A) (A) (A) (A)
                 (A) (A) (A) (A) (A) (A) (A) (A) (A) (A) (A) (A)
                 (A) (A) (A) (A) (A) (A) (A) (A) (A) (A) (A) (A)
                 (A) (A) (A) (A) (A) (A) (A) (A) (A) (A) (A) (A)
                 (A) (A) (A) (A) (A) (A) (A) (A) (A) (A) (A) (A)
                 (A) (A) (A) (A) (A) (A) (A) (A) (A) (A) (A) (A)
                 (A) (A) (A) (A) (A) (A) (A) (A) (A) (A) (A) (A)
                 (A) (A) (A) (A) (A) (A) (A) (A) (A) (A) (A) (A)
                 (A) (A) (A) (A) (A) (A) (A) (A) (A) (A) (A) (A)
                 (A) (A) (A) (A) (A) (A) (A) (A) (A) (A) (A) (A)
                 (A) (A) (A) (A) (A) (A) (A) (A) (A) (A) (A) (A)
                 (A) (A) (A) (A) (A) (A) (A) (A) (A) (A) (A) (A)
                 (A) (A) (A) (A) (A) (A) (A) (A) (A) (A) (A) (A)
                 (A) (A) (A) (A) (A) (A) (A) (A) (A) (A) (A) (A)
                 (A) (A) (A) (A) (A) (A) (A) (A) (A) (A) (A) (A)
                 (A) (A) (A) (A) (A) (A) (A) (A) (A) (A) (A) (A)
                 (A) (A) (A) (A) (A) (A) (A) (A) (A) (A) (A) (A)
                 (A) (A) (A) (A) (A) (A) (A) (A) (A) (A) (A) (A)
                 (A) (A) (A) (A) (A) (A) (A) (A) (A) (A) (A) (A)
                 (A) (A) (A) (A) (A) (A) (A) (A) (A) (A) (A) (A)
                 (A) (A) (A) (A) (A) (A) (A) (A) (A) (A) (A) (A)
                 (A) (A) (A) (A) (A) (A) (A) (A) (A) (A) (A) (A)
                 (A) (A) (A) (A) (A) (A)
 The electronic state is 1-A.
 Alpha  occ. eigenvalues --  -24.82240 -24.82240 -24.81793 -24.81793 -19.26197
 Alpha  occ. eigenvalues --  -14.43987 -10.38882 -10.38880 -10.35798 -10.35797
 Alpha  occ. eigenvalues --  -10.34801  -1.30120  -1.29996  -1.28741  -1.28676
 Alpha  occ. eigenvalues --   -1.09801  -1.01826  -0.86739  -0.82537  -0.71375
 Alpha  occ. eigenvalues --   -0.70962  -0.62947  -0.62777  -0.61263  -0.58179
 Alpha  occ. eigenvalues --   -0.57168  -0.55434  -0.54952  -0.52789  -0.50879
 Alpha  occ. eigenvalues --   -0.50054  -0.47908  -0.47490  -0.46060  -0.44853
 Alpha  occ. eigenvalues --   -0.43722  -0.41146  -0.36027  -0.34702  -0.32242
 Alpha  occ. eigenvalues --   -0.28681
 Alpha virt. eigenvalues --   -0.05819  -0.03251  -0.00275   0.05996   0.06994
 Alpha virt. eigenvalues --    0.09125   0.12839   0.13413   0.16112   0.17766
 Alpha virt. eigenvalues --    0.19450   0.19481   0.20417   0.23671   0.24113
 Alpha virt. eigenvalues --    0.25128   0.25341   0.27210   0.29205   0.29285
 Alpha virt. eigenvalues --    0.30702   0.32295   0.32715   0.33070   0.34669
 Alpha virt. eigenvalues --    0.36018   0.38697   0.38705   0.39772   0.40213
 Alpha virt. eigenvalues --    0.42216   0.42810   0.46501   0.46955   0.47179
 Alpha virt. eigenvalues --    0.51202   0.51700   0.55091   0.56362   0.57592
 Alpha virt. eigenvalues --    0.58798   0.61250   0.61466   0.62212   0.64322
 Alpha virt. eigenvalues --    0.64350   0.66479   0.67579   0.67609   0.70754
 Alpha virt. eigenvalues --    0.71254   0.74532   0.75046   0.78698   0.79422
 Alpha virt. eigenvalues --    0.80276   0.81263   0.82912   0.84191   0.84999
 Alpha virt. eigenvalues --    0.87888   0.88449   0.89487   0.89846   0.92629
 Alpha virt. eigenvalues --    0.94496   0.98529   1.00649   1.03695   1.08898
 Alpha virt. eigenvalues --    1.10145   1.10232   1.12519   1.13014   1.15025
 Alpha virt. eigenvalues --    1.16486   1.20296   1.26166   1.27069   1.30776
 Alpha virt. eigenvalues --    1.32900   1.34697   1.39588   1.40396   1.41653
 Alpha virt. eigenvalues --    1.42684   1.45004   1.47666   1.51496   1.54125
 Alpha virt. eigenvalues --    1.54207   1.58042   1.58900   1.67867   1.68484
 Alpha virt. eigenvalues --    1.69214   1.70491   1.71572   1.74435   1.76914
 Alpha virt. eigenvalues --    1.77287   1.82426   1.84956   1.86930   1.92266
 Alpha virt. eigenvalues --    1.94192   1.95314   1.99570   1.99865   2.03121
 Alpha virt. eigenvalues --    2.04594   2.05570   2.07140   2.10896   2.12193
 Alpha virt. eigenvalues --    2.15133   2.16241   2.18433   2.21161   2.21309
 Alpha virt. eigenvalues --    2.23121   2.24502   2.28723   2.31896   2.31996
 Alpha virt. eigenvalues --    2.33943   2.42398   2.45254   2.47144   2.47167
 Alpha virt. eigenvalues --    2.48979   2.52896   2.52965   2.54406   2.58609
 Alpha virt. eigenvalues --    2.60193   2.62624   2.68172   2.70541   2.74896
 Alpha virt. eigenvalues --    2.75933   2.76053   2.77389   2.78416   2.79795
 Alpha virt. eigenvalues --    2.80958   2.85054   2.86075   2.86253   2.87923
 Alpha virt. eigenvalues --    2.90660   2.93405   2.94596   2.96044   2.97164
 Alpha virt. eigenvalues --    2.99236   2.99672   3.02607   3.05068   3.07261
 Alpha virt. eigenvalues --    3.11554   3.11815   3.13963   3.15499   3.15806
 Alpha virt. eigenvalues --    3.16753   3.18302   3.19287   3.20091   3.23474
 Alpha virt. eigenvalues --    3.24602   3.27703   3.28344   3.34134   3.35303
 Alpha virt. eigenvalues --    3.37520   3.40779   3.41629   3.41870   3.48323
 Alpha virt. eigenvalues --    3.48741   3.51025   3.51335   3.53220   3.55586
 Alpha virt. eigenvalues --    3.57208   3.58653   3.68278   3.70411   3.74116
 Alpha virt. eigenvalues --    3.77480   3.82052   3.83130   3.88340   3.93496
 Alpha virt. eigenvalues --    3.95170   3.95523   3.98011   4.03227   4.07242
 Alpha virt. eigenvalues --    4.07697   4.10320   4.11028   4.11413   4.17681
 Alpha virt. eigenvalues --    4.24310   4.27292   4.27756   4.28754   4.31440
 Alpha virt. eigenvalues --    4.34086   4.37616   4.44420   4.47711   4.66111
 Alpha virt. eigenvalues --    4.67816   4.70663   4.78616   4.80638   4.84535
 Alpha virt. eigenvalues --    4.86685   4.92666   5.01313   5.08543   5.15886
 Alpha virt. eigenvalues --    5.17790   5.18670   5.19727   5.24113   5.26217
 Alpha virt. eigenvalues --    5.35363   5.43958   5.48691   5.52599   5.61765
 Alpha virt. eigenvalues --    5.65923   5.68530   5.75780   5.77016   6.00340
 Alpha virt. eigenvalues --    6.12380   6.31473   6.39945   6.66959   6.84737
 Alpha virt. eigenvalues --    6.84837   6.85176   6.85378   6.85743   6.85833
 Alpha virt. eigenvalues --    6.85973   6.86778   6.88226   6.92480   6.92534
 Alpha virt. eigenvalues --    6.95319   6.98397   6.98854   6.99394   7.01036
 Alpha virt. eigenvalues --    7.08114   7.09063   7.13067   7.14154   7.16100
 Alpha virt. eigenvalues --    7.25491   7.27261   7.29123   7.31627   7.38680
 Alpha virt. eigenvalues --    7.45473   7.46516   7.46592   7.68222   7.89740
 Alpha virt. eigenvalues --    8.30664   8.30785   8.34843   8.37055   8.44030
 Alpha virt. eigenvalues --    8.47457   8.53328   8.56788   8.69364   8.69748
 Alpha virt. eigenvalues --    8.77492   8.79411   8.82308   8.85459   8.95528
 Alpha virt. eigenvalues --    8.96741   8.99671   8.99946   9.07703   9.11899
 Alpha virt. eigenvalues --   22.41919  22.83747  22.83963  23.01400  23.26086
 Alpha virt. eigenvalues --   32.53860  44.00285  57.23390  57.32777  57.48677
 Alpha virt. eigenvalues --   57.49528
          Condensed to atoms (all electrons):
               1          2          3          4          5          6
     1  C    4.600861   0.396140  -0.017498  -0.010112  -0.072020   0.543802
     2  C    0.396140   5.093122   0.257564   0.042991  -0.010112  -0.124835
     3  C   -0.017498   0.257564   5.199793   0.257564  -0.017498   0.027223
     4  C   -0.010112   0.042991   0.257564   5.093122   0.396140  -0.124835
     5  C   -0.072020  -0.010112  -0.017498   0.396140   4.600860   0.543802
     6  N    0.543802  -0.124835   0.027223  -0.124835   0.543802   6.459645
     7  O    0.003428  -0.028887   0.297141  -0.028887   0.003428   0.000066
     8  H    0.000567  -0.009356  -0.026344  -0.009356   0.000567   0.000053
     9  F    0.000141   0.004572  -0.060438   0.303535  -0.039027   0.004173
    10  F   -0.039027   0.303535  -0.060438   0.004572   0.000141   0.004173
    11  F    0.358129  -0.080981   0.005480  -0.001311  -0.002180  -0.062805
    12  F   -0.002180  -0.001311   0.005480  -0.080981   0.358129  -0.062805
               7          8          9         10         11         12
     1  C    0.003428   0.000567   0.000141  -0.039027   0.358129  -0.002180
     2  C   -0.028887  -0.009356   0.004572   0.303535  -0.080981  -0.001311
     3  C    0.297141  -0.026344  -0.060438  -0.060438   0.005480   0.005480
     4  C   -0.028887  -0.009356   0.303535   0.004572  -0.001311  -0.080981
     5  C    0.003428   0.000567  -0.039027   0.000141  -0.002180   0.358129
     6  N    0.000066   0.000053   0.004173   0.004173  -0.062805  -0.062805
     7  O    7.887035   0.308395  -0.001224  -0.001224  -0.000042  -0.000042
     8  H    0.308395   0.358798   0.000758   0.000758   0.000004   0.000004
     9  F   -0.001224   0.000758   8.956234  -0.000021   0.000001   0.002383
    10  F   -0.001224   0.000758  -0.000021   8.956234   0.002383   0.000001
    11  F   -0.000042   0.000004   0.000001   0.002383   8.935715  -0.000015
    12  F   -0.000042   0.000004   0.002383   0.000001  -0.000015   8.935715
 Mulliken charges:
               1
     1  C    0.237769
     2  C    0.157558
     3  C    0.131970
     4  C    0.157559
     5  C    0.237769
     6  N   -0.207658
     7  O   -0.439189
     8  H    0.375153
     9  F   -0.171087
    10  F   -0.171087
    11  F   -0.154378
    12  F   -0.154378
 Sum of Mulliken charges =  -0.00000
 Mulliken charges with hydrogens summed into heavy atoms:
               1
     1  C    0.237769
     2  C    0.157558
     3  C    0.131970
     4  C    0.157559
     5  C    0.237769
     6  N   -0.207658
     7  O   -0.064036
     9  F   -0.171087
    10  F   -0.171087
    11  F   -0.154378
    12  F   -0.154378
 Electronic spatial extent (au):  <R**2>=           1587.6274
 Charge=             -0.0000 electrons
 Dipole moment (field-independent basis, Debye):
    X=             -0.0000    Y=              2.4241    Z=              1.7841  Tot=              3.0098
 Quadrupole moment (field-independent basis, Debye-Ang):
   XX=            -65.7897   YY=            -61.9957   ZZ=            -54.6687
   XY=             -0.0000   XZ=              0.0000   YZ=              5.6247
 Traceless Quadrupole moment (field-independent basis, Debye-Ang):
   XX=             -4.9717   YY=             -1.1777   ZZ=              6.1493
   XY=             -0.0000   XZ=              0.0000   YZ=              5.6247
 Octapole moment (field-independent basis, Debye-Ang**2):
  XXX=             -0.0000  YYY=             25.6627  ZZZ=              2.2914  XYY=             -0.0000
  XXY=              0.2853  XXZ=              0.3625  XZZ=             -0.0000  YZZ=              5.1405
  YYZ=             16.7439  XYZ=              0.0000
 Hexadecapole moment (field-independent basis, Debye-Ang**3):
 XXXX=           -932.8381 YYYY=           -720.8244 ZZZZ=            -48.1549 XXXY=              0.0000
 XXXZ=             -0.0000 YYYX=             -0.0000 YYYZ=             52.0774 ZZZX=             -0.0000
 ZZZY=              6.5938 XXYY=           -289.1922 XXZZ=           -150.4552 YYZZ=           -113.9057
 XXYZ=              1.1773 YYXZ=             -0.0000 ZZXY=             -0.0000
 N-N= 6.213809541016D+02 E-N=-2.943682657125D+03  KE= 7.166752261178D+02
 No NMR shielding tensors so no spin-rotation constants.
 Leave Link  601 at Fri May  3 19:27:23 2024, MaxMem=  8053063680 cpu:               1.2 elap:               0.1
 (Enter /share/apps/g16.b01_avx2/g16/l701.exe)
 ... and contract with generalized density number  0.
 Compute integral first derivatives.
 R6Disp: Adding Grimme-D3 dispersion energy 1st derivatives to the gradient.
   1 Symmetry operations used in ECPInt.
 ECPInt:  NShTT=    7875 NPrTT=   25896 LenC2=    7376 LenP2D=   18404.
 LDataN:  DoStor=T MaxTD1= 7 Len=  274
 D1PCM: PCM CHGder 1st derivatives, ID1Alg=3 FixD1E=F DoIter=F DoCFld=F I1PDM=0.
 GePol: Maximum number of non-zero 1st derivatives   =     206
 Leave Link  701 at Fri May  3 19:27:23 2024, MaxMem=  8053063680 cpu:               6.9 elap:               0.4
 (Enter /share/apps/g16.b01_avx2/g16/l702.exe)
 L702 exits ... SP integral derivatives will be done elsewhere.
 Leave Link  702 at Fri May  3 19:27:23 2024, MaxMem=  8053063680 cpu:               0.2 elap:               0.0
 (Enter /share/apps/g16.b01_avx2/g16/l703.exe)
 Integral derivatives from FoFJK, PRISM(SPDF).
 Compute integral first derivatives, UseDBF=F ICtDFT=           0.
 Calling FoFJK, ICntrl=      2127 FMM=F ISym2X=0 I1Cent= 0 IOpClX= 0 NMat=1 NMatS=1 NMatT=0.
 FoFJK:  IHMeth= 1 ICntrl=    2127 DoSepK=F KAlg= 0 I1Cent=           0 FoldK=F
 IRaf=         0 NMat=       1 IRICut=       1 DoRegI=T DoRafI=F ISym2E= 0 IDoP0=0 IntGTp=1.
 FoFCou: FMM=F IPFlag=           0 FMFlag=      100000 FMFlg1=         800
         NFxFlg=           0 DoJE=F BraDBF=F KetDBF=F FulRan=T
         wScrn=  0.000000 ICntrl=      2127 IOpCl=  0 I1Cent=           0 NGrid=           0
         NMat0=    1 NMatS0=      1 NMatT0=    0 NMatD0=    1 NMtDS0=    0 NMtDT0=    0
 Symmetry not used in FoFCou.
 Leave Link  703 at Fri May  3 19:27:32 2024, MaxMem=  8053063680 cpu:             145.0 elap:               9.1
 (Enter /share/apps/g16.b01_avx2/g16/l716.exe)
 Dipole        =-3.14666851D-07 9.53698152D-01 7.01900589D-01
 ***** Axes restored to original set *****
 -------------------------------------------------------------------
 Center     Atomic                   Forces (Hartrees/Bohr)
 Number     Number              X              Y              Z
 -------------------------------------------------------------------
      1        6          -0.000866681    0.029466129   -0.000753901
      2        6          -0.001795692   -0.016615107   -0.001389365
      3        6           0.041283975    0.001508484    0.008089364
      4        6          -0.003002539    0.016439515   -0.001393790
      5        6           0.001284426   -0.029451107   -0.000745360
      6        7           0.015112020    0.000551750   -0.000075014
      7        8          -0.052667225   -0.001924610   -0.011656343
      8        1          -0.001350115   -0.000048380    0.006292299
      9        9          -0.008910522   -0.019976228    0.000689504
     10        9          -0.010343552    0.019273445    0.000684022
     11        9           0.009615357    0.028122275    0.000125258
     12        9           0.011640547   -0.027346166    0.000133325
 -------------------------------------------------------------------
 Cartesian Forces:  Max     0.052667225 RMS     0.016651394
 Leave Link  716 at Fri May  3 19:27:32 2024, MaxMem=  8053063680 cpu:               0.1 elap:               0.0
 (Enter /share/apps/g16.b01_avx2/g16/l103.exe)

 GradGradGradGradGradGradGradGradGradGradGradGradGradGradGradGradGradGrad
 Berny optimization.
 FormGI is forming the generalized inverse of G from B-inverse, IUseBI=4.
 Internal  Forces:  Max     0.054049610 RMS     0.015356486
 Search for a local minimum.
 Step number   1 out of a maximum of   61
 All quantities printed in internal units (Hartrees-Bohrs-Radians)
 RMS Force = .15356D-01 SwitMx=.10000D-02 MixMth= 1
 Mixed Optimization -- RFO/linear search
 Second derivative matrix not updated -- first step.
 ITU=  0
     Eigenvalues ---    0.01295   0.01984   0.02102   0.02104   0.02132
     Eigenvalues ---    0.02132   0.02181   0.02212   0.02365   0.16000
     Eigenvalues ---    0.25000   0.25000   0.25000   0.25000   0.25000
     Eigenvalues ---    0.25000   0.25000   0.25000   0.40989   0.42165
     Eigenvalues ---    0.44237   0.45367   0.46189   0.54314   0.55021
     Eigenvalues ---    0.55021   0.55021   0.55021   0.55473   0.55710
 RFO step:  Lambda=-2.53556118D-02 EMin= 1.29493797D-02
 Linear search not attempted -- first point.
 Iteration  1 RMS(Cart)=  0.05038187 RMS(Int)=  0.00075246
 Iteration  2 RMS(Cart)=  0.00082743 RMS(Int)=  0.00007852
 Iteration  3 RMS(Cart)=  0.00000051 RMS(Int)=  0.00007852
 ITry= 1 IFail=0 DXMaxC= 1.77D-01 DCOld= 1.00D+10 DXMaxT= 3.00D-01 DXLimC= 3.00D+00 Rises=F
 Variable       Old X    -DE/DX   Delta X   Delta X   Delta X     New X
                                 (Linear)    (Quad)   (Total)
    R1        2.64853  -0.01818   0.00000  -0.03804  -0.03803   2.61049
    R2        2.53903  -0.04455   0.00000  -0.07818  -0.07813   2.46090
    R3        2.55113  -0.02927   0.00000  -0.05085  -0.05085   2.50028
    R4        2.63727  -0.01487   0.00000  -0.02731  -0.02736   2.60991
    R5        2.55113  -0.02184   0.00000  -0.03795  -0.03795   2.51318
    R6        2.63727  -0.01487   0.00000  -0.02731  -0.02736   2.60991
    R7        2.70231  -0.05405   0.00000  -0.12418  -0.12418   2.57813
    R8        2.64853  -0.01818   0.00000  -0.03804  -0.03803   2.61049
    R9        2.55113  -0.02184   0.00000  -0.03795  -0.03795   2.51318
   R10        2.53903  -0.04455   0.00000  -0.07818  -0.07813   2.46090
   R11        2.55113  -0.02927   0.00000  -0.05085  -0.05085   2.50028
   R12        1.81414   0.00548   0.00000   0.00945   0.00945   1.82358
    A1        2.10256   0.01595   0.00000   0.05306   0.05314   2.15570
    A2        2.09031  -0.00139   0.00000  -0.00263  -0.00266   2.08765
    A3        2.09031  -0.01456   0.00000  -0.05044  -0.05047   2.03984
    A4        2.08363  -0.00652   0.00000  -0.01727  -0.01729   2.06633
    A5        2.09978   0.00471   0.00000   0.01390   0.01391   2.11369
    A6        2.09978   0.00181   0.00000   0.00337   0.00338   2.10316
    A7        2.07403  -0.00799   0.00000  -0.01689  -0.01717   2.05686
    A8        2.10458   0.00399   0.00000   0.00845   0.00827   2.11285
    A9        2.10458   0.00399   0.00000   0.00845   0.00827   2.11285
   A10        2.08363  -0.00652   0.00000  -0.01727  -0.01729   2.06633
   A11        2.09978   0.00181   0.00000   0.00337   0.00338   2.10316
   A12        2.09978   0.00471   0.00000   0.01390   0.01391   2.11369
   A13        2.10256   0.01595   0.00000   0.05306   0.05314   2.15570
   A14        2.09031  -0.00139   0.00000  -0.00263  -0.00266   2.08765
   A15        2.09031  -0.01456   0.00000  -0.05044  -0.05047   2.03984
   A16        2.11996  -0.01087   0.00000  -0.05470  -0.05452   2.06544
   A17        1.91063  -0.00612   0.00000  -0.03304  -0.03304   1.87759
    D1       -0.00000   0.00006   0.00000   0.00146   0.00145   0.00145
    D2        3.14159  -0.00001   0.00000  -0.00004  -0.00005   3.14154
    D3        3.14159   0.00015   0.00000   0.00334   0.00335  -3.13824
    D4       -0.00000   0.00008   0.00000   0.00184   0.00185   0.00185
    D5        0.00000   0.00002   0.00000   0.00061   0.00059   0.00059
    D6       -3.14159  -0.00007   0.00000  -0.00127  -0.00126   3.14034
    D7        0.00000  -0.00013   0.00000  -0.00346  -0.00340  -0.00340
    D8       -3.14159   0.00157   0.00000   0.03422   0.03416  -3.10743
    D9        3.14159  -0.00007   0.00000  -0.00196  -0.00191   3.13969
   D10       -0.00000   0.00164   0.00000   0.03571   0.03565   0.03565
   D11       -0.00000   0.00013   0.00000   0.00346   0.00340   0.00340
   D12        3.14159   0.00007   0.00000   0.00196   0.00191  -3.13969
   D13        3.14159  -0.00157   0.00000  -0.03422  -0.03416   3.10743
   D14       -0.00000  -0.00164   0.00000  -0.03571  -0.03565  -0.03566
   D15       -1.57080  -0.00087   0.00000  -0.01917  -0.01938  -1.59018
   D16        1.57080   0.00087   0.00000   0.01917   0.01938   1.59018
   D17        0.00000  -0.00006   0.00000  -0.00146  -0.00145  -0.00145
   D18       -3.14159  -0.00015   0.00000  -0.00334  -0.00335   3.13824
   D19       -3.14159   0.00001   0.00000   0.00003   0.00005  -3.14154
   D20        0.00000  -0.00008   0.00000  -0.00185  -0.00185  -0.00185
   D21       -0.00000  -0.00002   0.00000  -0.00061  -0.00059  -0.00059
   D22        3.14159   0.00007   0.00000   0.00127   0.00126  -3.14034
         Item               Value     Threshold  Converged?
 Maximum Force            0.054050     0.000450     NO 
 RMS     Force            0.015356     0.000300     NO 
 Maximum Displacement     0.176904     0.001800     NO 
 RMS     Displacement     0.050691     0.001200     NO 
 Predicted change in Energy=-1.346714D-02
 Lowest energy point so far.  Saving SCF results.
 GradGradGradGradGradGradGradGradGradGradGradGradGradGradGradGradGradGrad

 Leave Link  103 at Fri May  3 19:27:32 2024, MaxMem=  8053063680 cpu:               0.2 elap:               0.0
 (Enter /share/apps/g16.b01_avx2/g16/l202.exe)
                          Input orientation:                          
 ---------------------------------------------------------------------
 Center     Atomic      Atomic             Coordinates (Angstroms)
 Number     Number       Type             X           Y           Z
 ---------------------------------------------------------------------
      1          6           0       -1.887161   -1.514826    0.001075
      2          6           0       -0.505829   -1.529099    0.006168
      3          6           0        0.163397   -0.320974    0.010757
      4          6           0       -0.592149    0.835131    0.005826
      5          6           0       -1.968762    0.720162    0.000750
      6          7           0       -2.594896   -0.421683   -0.001216
      7          8           0        1.526332   -0.271217   -0.024024
      8          1           0        1.840911   -0.259599    0.888188
      9          9           0       -0.002252    2.027060    0.007700
     10          9           0        0.169418   -2.674836    0.008380
     11          9           0       -2.552813   -2.658274    0.000465
     12          9           0       -2.716027    1.812023   -0.000184
 ---------------------------------------------------------------------
                    Distance matrix (angstroms):
                    1          2          3          4          5
     1  C    0.000000
     2  C    1.381414   0.000000
     3  C    2.372797   1.381106   0.000000
     4  C    2.683165   2.365805   1.381106   0.000000
     5  C    2.236477   2.683165   2.372797   1.381414   0.000000
     6  N    1.302250   2.364450   2.760157   2.364450   1.302250
     7  O    3.633060   2.390159   1.364286   2.390159   3.633060
     8  H    4.032503   2.810120   1.894123   2.810120   4.032503
     9  F    4.012217   3.591638   2.353872   1.329916   2.361185
    10  F    2.361185   1.329916   2.353872   3.591638   4.012217
    11  F    1.323090   2.337779   3.583417   4.006009   3.428548
    12  F    3.428548   4.006009   3.583417   2.337779   1.323090
                    6          7          8          9         10
     6  N    0.000000
     7  O    4.124037   0.000000
     8  H    4.526996   0.964999   0.000000
     9  F    3.566262   2.760372   3.066157   0.000000
    10  F    3.566262   2.760372   3.066157   4.705030   0.000000
    11  F    2.236988   4.726317   5.083945   5.334583   2.722293
    12  F    2.236988   4.726317   5.083946   2.722293   5.334583
                   11         12
    11  F    0.000000
    12  F    4.473276   0.000000
 Stoichiometry    C5HF4NO
 Framework group  C1[X(C5HF4NO)]
 Deg. of freedom    30
 Full point group                 C1      NOp   1
 RotChk:  IX=0 Diff= 1.08D-03
 Largest Abelian subgroup         C1      NOp   1
 Largest concise Abelian subgroup C1      NOp   1
                         Standard orientation:                         
 ---------------------------------------------------------------------
 Center     Atomic      Atomic             Coordinates (Angstroms)
 Number     Number       Type             X           Y           Z
 ---------------------------------------------------------------------
      1          6           0        1.118238   -0.968047    0.002107
      2          6           0        1.182903    0.411785   -0.011585
      3          6           0        0.000000    1.124645   -0.016525
      4          6           0       -1.182903    0.411785   -0.011585
      5          6           0       -1.118238   -0.968047    0.002106
      6          7           0        0.000000   -1.635393    0.009059
      7          8           0       -0.000000    2.487888   -0.069859
      8          1           0       -0.000000    2.815064    0.837984
      9          9           0       -2.352515    1.044748   -0.018154
     10          9           0        2.352515    1.044748   -0.018156
     11          9           0        2.236638   -1.674922    0.010954
     12          9           0       -2.236638   -1.674922    0.010953
 ---------------------------------------------------------------------
 Rotational constants (GHZ):           1.5088027           1.0874229           0.6332071
 Leave Link  202 at Fri May  3 19:27:32 2024, MaxMem=  8053063680 cpu:               0.0 elap:               0.0
 (Enter /share/apps/g16.b01_avx2/g16/l301.exe)
 Standard basis: def2TZVP (5D, 7F)
 Ernie: Thresh=  0.10000D-02 Tol=  0.10000D-05 Strict=F.
 There are   402 symmetry adapted cartesian basis functions of A   symmetry.
 There are   347 symmetry adapted basis functions of A   symmetry.
   347 basis functions,   569 primitive gaussians,   402 cartesian basis functions
    41 alpha electrons       41 beta electrons
       nuclear repulsion energy       634.3430375368 Hartrees.
 IExCor= 1009 DFT=T Ex+Corr=PBE1PBE ExCW=0 ScaHFX=  0.250000
 ScaDFX=  0.750000  0.750000  1.000000  1.000000 ScalE2=  1.000000  1.000000
 IRadAn=  99590 IRanWt=     -1 IRanGd=            0 ICorTp=0 IEmpDi=131
 NAtoms=   12 NActive=   12 NUniq=   12 SFac= 1.00D+00 NAtFMM=   60 NAOKFM=F Big=F
 Integral buffers will be    131072 words long.
 Raffenetti 2 integral format.
 Two-electron integral symmetry is turned on.
 R6Disp:  Grimme-D3 Dispersion energy=       -0.0048344349 Hartrees.
 Nuclear repulsion after empirical dispersion term =      634.3382031019 Hartrees.
 ------------------------------------------------------------------------------
 Polarizable Continuum Model (PCM)
 =================================
 Model                : PCM.
 Atomic radii         : UFF (Universal Force Field).
 Polarization charges : Total charges.
 Charge compensation  : None.
 Solution method      : On-the-fly selection.
 Cavity type          : Scaled VdW (van der Waals Surface) (Alpha=1.100).
 Cavity algorithm     : GePol (No added spheres)
                        Default sphere list used, NSphG=   12.
                        Lebedev-Laikov grids with approx.  5.0 points / Ang**2.
                        Smoothing algorithm: York/Karplus (Gamma=1.0000).
                        Polarization charges: spherical gaussians, with
                                              point-specific exponents (IZeta= 3).
                        Self-potential: point-specific (ISelfS= 7).
                        Self-field    : sphere-specific E.n sum rule (ISelfD= 2).
 1st derivatives      : Analytical E(r).r(x)/FMM algorithm (CHGder, D1EAlg=3).
                        Cavity 1st derivative terms included.
 Solvent              : Water, Eps=  78.355300 Eps(inf)=   1.777849
 ------------------------------------------------------------------------------
 Spheres list:
 ISph  on   Nord     Re0    Alpha      Xe            Ye            Ze
    1   C      1    1.9255  1.100      1.118238     -0.968047      0.002107
    2   C      2    1.9255  1.100      1.182903      0.411785     -0.011585
    3   C      3    1.9255  1.100      0.000000      1.124645     -0.016525
    4   C      4    1.9255  1.100     -1.182903      0.411785     -0.011585
    5   C      5    1.9255  1.100     -1.118238     -0.968047      0.002106
    6   N      6    1.8300  1.100      0.000000     -1.635393      0.009059
    7   O      7    1.7500  1.100     -0.000000      2.487888     -0.069859
    8   H      8    1.4430  1.100     -0.000000      2.815064      0.837984
    9   F      9    1.6820  1.100     -2.352515      1.044748     -0.018154
   10   F     10    1.6820  1.100      2.352515      1.044748     -0.018156
   11   F     11    1.6820  1.100      2.236638     -1.674922      0.010954
   12   F     12    1.6820  1.100     -2.236638     -1.674922      0.010953
 ------------------------------------------------------------------------------
 GePol: Number of generator spheres                  =      12
 GePol: Total number of spheres                      =      12
 GePol: Number of exposed spheres                    =      12 (100.00%)
 GePol: Number of points                             =    1351
 GePol: Average weight of points                     =       0.13
 GePol: Minimum weight of points                     =   0.28D-06
 GePol: Maximum weight of points                     =    0.20286
 GePol: Number of points with low weight             =      46
 GePol: Fraction of low-weight points (<1% of avg)   =       3.40%
 GePol: Cavity surface area                          =    173.711 Ang**2
 GePol: Cavity volume                                =    167.140 Ang**3
 Leave Link  301 at Fri May  3 19:27:32 2024, MaxMem=  8053063680 cpu:               0.3 elap:               0.0
 (Enter /share/apps/g16.b01_avx2/g16/l302.exe)
 NPDir=0 NMtPBC=     1 NCelOv=     1 NCel=       1 NClECP=     1 NCelD=      1
         NCelK=      1 NCelE2=     1 NClLst=     1 CellRange=     0.0.
 One-electron integrals computed using PRISM.
 One-electron integral symmetry used in STVInt
   1 Symmetry operations used in ECPInt.
 ECPInt:  NShTT=    7875 NPrTT=   25896 LenC2=    7410 LenP2D=   18536.
 LDataN:  DoStor=T MaxTD1= 6 Len=  172
 NBasis=   347 RedAO= T EigKep=  4.66D-05  NBF=   347
 NBsUse=   347 1.00D-06 EigRej= -1.00D+00 NBFU=   347
 Precomputing XC quadrature grid using
 IXCGrd= 4 IRadAn=       99590 IRanWt=          -1 IRanGd=           0 AccXCQ= 0.00D+00.
 Generated NRdTot=       0 NPtTot=           0 NUsed=           0 NTot=          32
 NSgBfM=   397   397   397   397   397 MxSgAt=    12 MxSgA2=    12.
 Leave Link  302 at Fri May  3 19:27:32 2024, MaxMem=  8053063680 cpu:               1.9 elap:               0.1
 (Enter /share/apps/g16.b01_avx2/g16/l303.exe)
 DipDrv:  MaxL=1.
 Leave Link  303 at Fri May  3 19:27:32 2024, MaxMem=  8053063680 cpu:               0.3 elap:               0.0
 (Enter /share/apps/g16.b01_avx2/g16/l401.exe)
 Initial guess from the checkpoint file:  "/scratch/Gau-41967.chk"
 B after Tr=    -0.000000   -0.000000   -0.000000
         Rot=    1.000000   -0.000093    0.000000    0.000000 Ang=  -0.01 deg.
 Guess basis will be translated and rotated to current coordinates.
 JPrj=2 DoOrth=T DoCkMO=T.
 Generating alternative initial guess.
 ExpMin= 9.52D-02 ExpMax= 3.55D+04 ExpMxC= 1.21D+03 IAcc=4 IRadAn=    199590 AccDes= 0.00D+00
 Harris functional with IExCor= 1009 and IRadAn=  199590 diagonalized for initial guess.
 HarFok:  IExCor= 1009 AccDes= 0.00D+00 IRadAn=    199590 IDoV= 1 UseB2=F ITyADJ=14
 ICtDFT=  3500011 ScaDFX=  1.000000  1.000000  1.000000  1.000000
 FoFCou: FMM=F IPFlag=           0 FMFlag=      100000 FMFlg1=           0
         NFxFlg=           0 DoJE=T BraDBF=F KetDBF=T FulRan=T
         wScrn=  0.000000 ICntrl=       500 IOpCl=  0 I1Cent=   200000004 NGrid=           0
         NMat0=    1 NMatS0=      1 NMatT0=    0 NMatD0=    1 NMtDS0=    0 NMtDT0=    0
 Petite list used in FoFCou.
 Harris En= -720.033776629160    
 Leave Link  401 at Fri May  3 19:27:33 2024, MaxMem=  8053063680 cpu:              16.1 elap:               1.0
 (Enter /share/apps/g16.b01_avx2/g16/l502.exe)
 Keep R1 ints in memory in canonical form, NReq=1855508542.
 FoFCou: FMM=F IPFlag=           0 FMFlag=           0 FMFlg1=           0
         NFxFlg=           0 DoJE=F BraDBF=F KetDBF=F FulRan=T
         wScrn=  0.000000 ICntrl=       600 IOpCl=  0 I1Cent=           0 NGrid=           0
         NMat0=    1 NMatS0=  60378 NMatT0=    0 NMatD0=    1 NMtDS0=    0 NMtDT0=    0
 Symmetry not used in FoFCou.
 Two-electron integral symmetry not used.
 Closed shell SCF:
 Using DIIS extrapolation, IDIIS=  1040.
 NGot=  8053063680 LenX=  6229949011 LenY=  6229786966
 Requested convergence on RMS density matrix=1.00D-08 within 128 cycles.
 Requested convergence on MAX density matrix=1.00D-06.
 Requested convergence on             energy=1.00D-06.
 No special actions if energy rises.

 Cycle   1  Pass 1  IDiag  1:
 Inv3:  Mode=1 IEnd=     5475603.
 Iteration    1 A*A^-1 deviation from unit magnitude is 3.66D-15 for    774.
 Iteration    1 A*A^-1 deviation from orthogonality  is 1.11D-15 for   1244    746.
 Iteration    1 A^-1*A deviation from unit magnitude is 2.44D-15 for    239.
 Iteration    1 A^-1*A deviation from orthogonality  is 1.74D-15 for   1027    794.
 E= -720.021849512063    
 DIIS: error= 2.53D-03 at cycle   1 NSaved=   1.
 NSaved= 1 IEnMin= 1 EnMin= -720.021849512063     IErMin= 1 ErrMin= 2.53D-03
 ErrMax= 2.53D-03  0.00D+00 EMaxC= 1.00D-01 BMatC= 6.96D-03 BMatP= 6.96D-03
 IDIUse=3 WtCom= 9.75D-01 WtEn= 2.53D-02
 Coeff-Com:  0.100D+01
 Coeff-En:   0.100D+01
 Coeff:      0.100D+01
 Gap=     0.794 Goal=   None    Shift=    0.000
 GapD=    0.794 DampG=2.000 DampE=1.000 DampFc=2.0000 IDamp=-1.
 RMSDP=4.42D-04 MaxDP=2.44D-02              OVMax= 1.76D-02

 Cycle   2  Pass 1  IDiag  1:
 E= -720.026234020620     Delta-E=       -0.004384508556 Rises=F Damp=F
 DIIS: error= 1.29D-03 at cycle   2 NSaved=   2.
 NSaved= 2 IEnMin= 2 EnMin= -720.026234020620     IErMin= 2 ErrMin= 1.29D-03
 ErrMax= 1.29D-03  0.00D+00 EMaxC= 1.00D-01 BMatC= 1.01D-03 BMatP= 6.96D-03
 IDIUse=3 WtCom= 9.87D-01 WtEn= 1.29D-02
 Coeff-Com:  0.186D+00 0.814D+00
 Coeff-En:   0.000D+00 0.100D+01
 Coeff:      0.184D+00 0.816D+00
 Gap=     0.237 Goal=   None    Shift=    0.000
 RMSDP=1.54D-04 MaxDP=6.38D-03 DE=-4.38D-03 OVMax= 1.32D-02

 Cycle   3  Pass 1  IDiag  1:
 E= -720.026238875610     Delta-E=       -0.000004854990 Rises=F Damp=F
 DIIS: error= 1.45D-03 at cycle   3 NSaved=   3.
 NSaved= 3 IEnMin= 3 EnMin= -720.026238875610     IErMin= 2 ErrMin= 1.29D-03
 ErrMax= 1.45D-03  0.00D+00 EMaxC= 1.00D-01 BMatC= 1.02D-03 BMatP= 1.01D-03
 IDIUse=3 WtCom= 9.85D-01 WtEn= 1.45D-02
 Coeff-Com:  0.105D-01 0.500D+00 0.489D+00
 Coeff-En:   0.000D+00 0.499D+00 0.501D+00
 Coeff:      0.104D-01 0.500D+00 0.489D+00
 Gap=     0.234 Goal=   None    Shift=    0.000
 RMSDP=9.35D-05 MaxDP=3.78D-03 DE=-4.85D-06 OVMax= 8.65D-03

 Cycle   4  Pass 1  IDiag  1:
 E= -720.027012159961     Delta-E=       -0.000773284351 Rises=F Damp=F
 DIIS: error= 2.89D-04 at cycle   4 NSaved=   4.
 NSaved= 4 IEnMin= 4 EnMin= -720.027012159961     IErMin= 4 ErrMin= 2.89D-04
 ErrMax= 2.89D-04  0.00D+00 EMaxC= 1.00D-01 BMatC= 4.20D-05 BMatP= 1.01D-03
 IDIUse=3 WtCom= 9.97D-01 WtEn= 2.89D-03
 Coeff-Com: -0.100D-01 0.180D+00 0.243D+00 0.587D+00
 Coeff-En:   0.000D+00 0.000D+00 0.000D+00 0.100D+01
 Coeff:     -0.998D-02 0.179D+00 0.242D+00 0.589D+00
 Gap=     0.234 Goal=   None    Shift=    0.000
 RMSDP=2.24D-05 MaxDP=1.44D-03 DE=-7.73D-04 OVMax= 1.76D-03

 Cycle   5  Pass 1  IDiag  1:
 E= -720.027042172359     Delta-E=       -0.000030012398 Rises=F Damp=F
 DIIS: error= 4.83D-05 at cycle   5 NSaved=   5.
 NSaved= 5 IEnMin= 5 EnMin= -720.027042172359     IErMin= 5 ErrMin= 4.83D-05
 ErrMax= 4.83D-05  0.00D+00 EMaxC= 1.00D-01 BMatC= 1.24D-06 BMatP= 4.20D-05
 IDIUse=1 WtCom= 1.00D+00 WtEn= 0.00D+00
 Coeff-Com: -0.365D-02 0.434D-01 0.727D-01 0.212D+00 0.676D+00
 Coeff:     -0.365D-02 0.434D-01 0.727D-01 0.212D+00 0.676D+00
 Gap=     0.234 Goal=   None    Shift=    0.000
 RMSDP=4.80D-06 MaxDP=2.03D-04 DE=-3.00D-05 OVMax= 7.74D-04

 Cycle   6  Pass 1  IDiag  1:
 E= -720.027042927086     Delta-E=       -0.000000754727 Rises=F Damp=F
 DIIS: error= 3.18D-05 at cycle   6 NSaved=   6.
 NSaved= 6 IEnMin= 6 EnMin= -720.027042927086     IErMin= 6 ErrMin= 3.18D-05
 ErrMax= 3.18D-05  0.00D+00 EMaxC= 1.00D-01 BMatC= 4.75D-07 BMatP= 1.24D-06
 IDIUse=1 WtCom= 1.00D+00 WtEn= 0.00D+00
 Coeff-Com: -0.561D-03-0.418D-02 0.502D-02 0.289D-01 0.400D+00 0.570D+00
 Coeff:     -0.561D-03-0.418D-02 0.502D-02 0.289D-01 0.400D+00 0.570D+00
 Gap=     0.234 Goal=   None    Shift=    0.000
 RMSDP=2.36D-06 MaxDP=1.07D-04 DE=-7.55D-07 OVMax= 2.40D-04

 Cycle   7  Pass 1  IDiag  1:
 E= -720.027043334760     Delta-E=       -0.000000407674 Rises=F Damp=F
 DIIS: error= 3.54D-06 at cycle   7 NSaved=   7.
 NSaved= 7 IEnMin= 7 EnMin= -720.027043334760     IErMin= 7 ErrMin= 3.54D-06
 ErrMax= 3.54D-06  0.00D+00 EMaxC= 1.00D-01 BMatC= 8.18D-09 BMatP= 4.75D-07
 IDIUse=1 WtCom= 1.00D+00 WtEn= 0.00D+00
 Coeff-Com:  0.196D-04-0.445D-02-0.301D-02-0.358D-02 0.112D+00 0.195D+00
 Coeff-Com:  0.704D+00
 Coeff:      0.196D-04-0.445D-02-0.301D-02-0.358D-02 0.112D+00 0.195D+00
 Coeff:      0.704D+00
 Gap=     0.234 Goal=   None    Shift=    0.000
 RMSDP=2.77D-07 MaxDP=1.87D-05 DE=-4.08D-07 OVMax= 1.81D-05

 Cycle   8  Pass 1  IDiag  1:
 E= -720.027043339342     Delta-E=       -0.000000004583 Rises=F Damp=F
 DIIS: error= 1.99D-06 at cycle   8 NSaved=   8.
 NSaved= 8 IEnMin= 8 EnMin= -720.027043339342     IErMin= 8 ErrMin= 1.99D-06
 ErrMax= 1.99D-06  0.00D+00 EMaxC= 1.00D-01 BMatC= 1.63D-09 BMatP= 8.18D-09
 IDIUse=1 WtCom= 1.00D+00 WtEn= 0.00D+00
 Coeff-Com:  0.384D-04-0.169D-02-0.165D-02-0.319D-02 0.242D-01 0.444D-01
 Coeff-Com:  0.344D+00 0.594D+00
 Coeff:      0.384D-04-0.169D-02-0.165D-02-0.319D-02 0.242D-01 0.444D-01
 Coeff:      0.344D+00 0.594D+00
 Gap=     0.234 Goal=   None    Shift=    0.000
 RMSDP=1.13D-07 MaxDP=7.31D-06 DE=-4.58D-09 OVMax= 1.13D-05

 Cycle   9  Pass 1  IDiag  1:
 E= -720.027043340461     Delta-E=       -0.000000001118 Rises=F Damp=F
 DIIS: error= 6.25D-07 at cycle   9 NSaved=   9.
 NSaved= 9 IEnMin= 9 EnMin= -720.027043340461     IErMin= 9 ErrMin= 6.25D-07
 ErrMax= 6.25D-07  0.00D+00 EMaxC= 1.00D-01 BMatC= 1.69D-10 BMatP= 1.63D-09
 IDIUse=1 WtCom= 1.00D+00 WtEn= 0.00D+00
 Coeff-Com:  0.147D-04-0.151D-03-0.336D-03-0.110D-02-0.312D-02-0.659D-02
 Coeff-Com:  0.527D-01 0.277D+00 0.682D+00
 Coeff:      0.147D-04-0.151D-03-0.336D-03-0.110D-02-0.312D-02-0.659D-02
 Coeff:      0.527D-01 0.277D+00 0.682D+00
 Gap=     0.234 Goal=   None    Shift=    0.000
 RMSDP=3.76D-08 MaxDP=1.25D-06 DE=-1.12D-09 OVMax= 2.46D-06

 Cycle  10  Pass 1  IDiag  1:
 E= -720.027043340585     Delta-E=       -0.000000000124 Rises=F Damp=F
 DIIS: error= 1.53D-07 at cycle  10 NSaved=  10.
 NSaved=10 IEnMin=10 EnMin= -720.027043340585     IErMin=10 ErrMin= 1.53D-07
 ErrMax= 1.53D-07  0.00D+00 EMaxC= 1.00D-01 BMatC= 1.26D-11 BMatP= 1.69D-10
 IDIUse=1 WtCom= 1.00D+00 WtEn= 0.00D+00
 Coeff-Com:  0.475D-05 0.539D-04-0.417D-04-0.353D-03-0.385D-02-0.768D-02
 Coeff-Com: -0.219D-02 0.934D-01 0.312D+00 0.609D+00
 Coeff:      0.475D-05 0.539D-04-0.417D-04-0.353D-03-0.385D-02-0.768D-02
 Coeff:     -0.219D-02 0.934D-01 0.312D+00 0.609D+00
 Gap=     0.234 Goal=   None    Shift=    0.000
 RMSDP=9.30D-09 MaxDP=3.91D-07 DE=-1.24D-10 OVMax= 5.45D-07

 Error on total polarization charges =  0.00631
 SCF Done:  E(RPBE1PBE) =  -720.027043341     A.U. after   10 cycles
            NFock= 10  Conv=0.93D-08     -V/T= 2.0035
 KE= 7.175119285557D+02 PE=-2.970324954593D+03 EE= 8.984477795944D+02
 Leave Link  502 at Fri May  3 19:27:53 2024, MaxMem=  8053063680 cpu:             210.0 elap:              19.6
 (Enter /share/apps/g16.b01_avx2/g16/l701.exe)
 ... and contract with generalized density number  0.
 Compute integral first derivatives.
 R6Disp: Adding Grimme-D3 dispersion energy 1st derivatives to the gradient.
   1 Symmetry operations used in ECPInt.
 ECPInt:  NShTT=    7875 NPrTT=   25896 LenC2=    7410 LenP2D=   18536.
 LDataN:  DoStor=T MaxTD1= 7 Len=  274
 D1PCM: PCM CHGder 1st derivatives, ID1Alg=3 FixD1E=F DoIter=F DoCFld=F I1PDM=0.
 GePol: Maximum number of non-zero 1st derivatives   =     206
 Leave Link  701 at Fri May  3 19:27:54 2024, MaxMem=  8053063680 cpu:               8.4 elap:               0.5
 (Enter /share/apps/g16.b01_avx2/g16/l702.exe)
 L702 exits ... SP integral derivatives will be done elsewhere.
 Leave Link  702 at Fri May  3 19:27:54 2024, MaxMem=  8053063680 cpu:               0.2 elap:               0.0
 (Enter /share/apps/g16.b01_avx2/g16/l703.exe)
 Integral derivatives from FoFJK, PRISM(SPDF).
 Compute integral first derivatives, UseDBF=F ICtDFT=           0.
 Calling FoFJK, ICntrl=      2127 FMM=F ISym2X=0 I1Cent= 0 IOpClX= 0 NMat=1 NMatS=1 NMatT=0.
 FoFJK:  IHMeth= 1 ICntrl=    2127 DoSepK=F KAlg= 0 I1Cent=           0 FoldK=F
 IRaf=         0 NMat=       1 IRICut=       1 DoRegI=T DoRafI=F ISym2E= 0 IDoP0=0 IntGTp=1.
 FoFCou: FMM=F IPFlag=           0 FMFlag=      100000 FMFlg1=         800
         NFxFlg=           0 DoJE=F BraDBF=F KetDBF=F FulRan=T
         wScrn=  0.000000 ICntrl=      2127 IOpCl=  0 I1Cent=           0 NGrid=           0
         NMat0=    1 NMatS0=      1 NMatT0=    0 NMatD0=    1 NMtDS0=    0 NMtDT0=    0
 Symmetry not used in FoFCou.
 Leave Link  703 at Fri May  3 19:28:03 2024, MaxMem=  8053063680 cpu:             152.5 elap:               9.5
 (Enter /share/apps/g16.b01_avx2/g16/l716.exe)
 Dipole        =-3.44076057D-08 1.08963739D+00 7.08026394D-01
 ***** Axes restored to original set *****
 -------------------------------------------------------------------
 Center     Atomic                   Forces (Hartrees/Bohr)
 Number     Number              X              Y              Z
 -------------------------------------------------------------------
      1        6          -0.000718947   -0.002500738   -0.000161526
      2        6          -0.001339680   -0.010581594   -0.000666413
      3        6           0.017917370    0.000654082   -0.000707131
      4        6          -0.002107758    0.010455526   -0.000669333
      5        6          -0.000899386    0.002441613   -0.000162275
      6        7          -0.001945104   -0.000071039   -0.000052049
      7        8          -0.012367804   -0.000451280    0.001922970
      8        1           0.004464487    0.000162995   -0.000043685
      9        9          -0.001871614   -0.003764408    0.000303025
     10        9          -0.002141151    0.003617987    0.000302032
     11        9           0.000592999   -0.002397461   -0.000032468
     12        9           0.000416587    0.002434317   -0.000033146
 -------------------------------------------------------------------
 Cartesian Forces:  Max     0.017917370 RMS     0.004691359
 Leave Link  716 at Fri May  3 19:28:03 2024, MaxMem=  8053063680 cpu:               0.2 elap:               0.0
 (Enter /share/apps/g16.b01_avx2/g16/l103.exe)

 GradGradGradGradGradGradGradGradGradGradGradGradGradGradGradGradGradGrad
 Berny optimization.
 Using GEDIIS/GDIIS optimizer.
 FormGI is forming the generalized inverse of G from B-inverse, IUseBI=4.
 Internal  Forces:  Max     0.008128792 RMS     0.002726387
 Search for a local minimum.
 Step number   2 out of a maximum of   61
 All quantities printed in internal units (Hartrees-Bohrs-Radians)
 RMS Force = .27264D-02 SwitMx=.10000D-02 MixMth= 1
 Mixed Optimization -- RFO/linear search
 Update second derivatives using D2CorX and points    1    2
 DE= -1.29D-02 DEPred=-1.35D-02 R= 9.56D-01
 TightC=F SS=  1.41D+00  RLast= 2.49D-01 DXNew= 5.0454D-01 7.4770D-01
 Trust test= 9.56D-01 RLast= 2.49D-01 DXMaxT set to 5.05D-01
 ITU=  1  0
 Use linear search instead of GDIIS.
     Eigenvalues ---    0.01295   0.01988   0.02102   0.02104   0.02133
     Eigenvalues ---    0.02133   0.02179   0.02207   0.02359   0.16170
     Eigenvalues ---    0.24841   0.24980   0.24997   0.25000   0.25000
     Eigenvalues ---    0.25000   0.25000   0.26189   0.37577   0.41962
     Eigenvalues ---    0.44264   0.46072   0.46182   0.53889   0.54900
     Eigenvalues ---    0.55021   0.55021   0.55459   0.55616   0.62079
 RFO step:  Lambda=-1.11241266D-03 EMin= 1.29493797D-02
 Quartic linear search produced a step of -0.02393.
 Iteration  1 RMS(Cart)=  0.01853606 RMS(Int)=  0.00052744
 Iteration  2 RMS(Cart)=  0.00043893 RMS(Int)=  0.00005507
 Iteration  3 RMS(Cart)=  0.00000014 RMS(Int)=  0.00005507
 ITry= 1 IFail=0 DXMaxC= 8.87D-02 DCOld= 1.00D+10 DXMaxT= 5.05D-01 DXLimC= 3.00D+00 Rises=F
 Variable       Old X    -DE/DX   Delta X   Delta X   Delta X     New X
                                 (Linear)    (Quad)   (Total)
    R1        2.61049   0.00129   0.00091   0.00020   0.00111   2.61160
    R2        2.46090   0.00501   0.00187   0.00328   0.00512   2.46602
    R3        2.50028   0.00177   0.00122  -0.00025   0.00096   2.50124
    R4        2.60991   0.00813   0.00065   0.01543   0.01611   2.62602
    R5        2.51318  -0.00420   0.00091  -0.00997  -0.00906   2.50411
    R6        2.60991   0.00813   0.00065   0.01543   0.01611   2.62602
    R7        2.57813  -0.00795   0.00297  -0.02730  -0.02433   2.55380
    R8        2.61049   0.00129   0.00091   0.00020   0.00111   2.61160
    R9        2.51318  -0.00420   0.00091  -0.00997  -0.00906   2.50411
   R10        2.46090   0.00501   0.00187   0.00328   0.00512   2.46602
   R11        2.50028   0.00177   0.00122  -0.00025   0.00096   2.50124
   R12        1.82358   0.00141  -0.00023   0.00311   0.00288   1.82647
    A1        2.15570  -0.00053  -0.00127   0.00141   0.00014   2.15584
    A2        2.08765  -0.00188   0.00006  -0.00736  -0.00730   2.08035
    A3        2.03984   0.00242   0.00121   0.00596   0.00716   2.04700
    A4        2.06633   0.00037   0.00041   0.00069   0.00116   2.06750
    A5        2.11369  -0.00019  -0.00033  -0.00000  -0.00037   2.11332
    A6        2.10316  -0.00018  -0.00008  -0.00069  -0.00080   2.10237
    A7        2.05686  -0.00128   0.00041  -0.00570  -0.00538   2.05148
    A8        2.11285   0.00063  -0.00020   0.00222   0.00178   2.11463
    A9        2.11285   0.00063  -0.00020   0.00222   0.00178   2.11463
   A10        2.06633   0.00037   0.00041   0.00069   0.00116   2.06750
   A11        2.10316  -0.00018  -0.00008  -0.00069  -0.00080   2.10237
   A12        2.11369  -0.00019  -0.00033  -0.00000  -0.00037   2.11332
   A13        2.15570  -0.00053  -0.00127   0.00141   0.00014   2.15584
   A14        2.08765  -0.00188   0.00006  -0.00736  -0.00730   2.08035
   A15        2.03984   0.00242   0.00121   0.00596   0.00716   2.04700
   A16        2.06544   0.00162   0.00130   0.00149   0.00275   2.06819
   A17        1.87759   0.00773   0.00079   0.04437   0.04516   1.92275
    D1        0.00145   0.00004  -0.00003   0.00239   0.00236   0.00381
    D2        3.14154   0.00001   0.00000   0.00060   0.00060  -3.14104
    D3       -3.13824  -0.00001  -0.00008   0.00058   0.00050  -3.13774
    D4        0.00185  -0.00004  -0.00004  -0.00122  -0.00126   0.00059
    D5        0.00059  -0.00001  -0.00001  -0.00031  -0.00033   0.00026
    D6        3.14034   0.00003   0.00003   0.00144   0.00148  -3.14137
    D7       -0.00340  -0.00006   0.00008  -0.00430  -0.00420  -0.00760
    D8       -3.10743   0.00063  -0.00082   0.03349   0.03265  -3.07478
    D9        3.13969  -0.00003   0.00005  -0.00252  -0.00245   3.13723
   D10        0.03565   0.00066  -0.00085   0.03527   0.03440   0.07006
   D11        0.00340   0.00006  -0.00008   0.00430   0.00420   0.00760
   D12       -3.13969   0.00003  -0.00005   0.00252   0.00246  -3.13723
   D13        3.10743  -0.00063   0.00082  -0.03349  -0.03265   3.07478
   D14       -0.03566  -0.00066   0.00085  -0.03527  -0.03440  -0.07006
   D15       -1.59018  -0.00037   0.00046  -0.01959  -0.01917  -1.60935
   D16        1.59018   0.00037  -0.00046   0.01959   0.01917   1.60935
   D17       -0.00145  -0.00004   0.00003  -0.00239  -0.00236  -0.00381
   D18        3.13824   0.00001   0.00008  -0.00058  -0.00050   3.13774
   D19       -3.14154  -0.00001  -0.00000  -0.00060  -0.00060   3.14104
   D20       -0.00185   0.00004   0.00004   0.00122   0.00126  -0.00059
   D21       -0.00059   0.00001   0.00001   0.00031   0.00033  -0.00026
[...]
   D16        1.60642  -0.00001   0.00000  -0.00047  -0.00047   1.60595
   D17       -0.00024  -0.00000   0.00000  -0.00007  -0.00007  -0.00031
   D18        3.14057   0.00001   0.00000   0.00024   0.00024   3.14082
   D19       -3.14109  -0.00000   0.00000  -0.00005  -0.00005  -3.14114
   D20       -0.00027   0.00001   0.00000   0.00025   0.00025  -0.00002
   D21       -0.00009   0.00001   0.00000   0.00041   0.00041   0.00031
   D22       -3.14092   0.00000   0.00000   0.00010   0.00010  -3.14082
         Item               Value     Threshold  Converged?
 Maximum Force            0.000116     0.000450     YES
 RMS     Force            0.000038     0.000300     YES
 Maximum Displacement     0.000812     0.001800     YES
 RMS     Displacement     0.000218     0.001200     YES
 Predicted change in Energy=-1.489506D-07
 Optimization completed.
    -- Stationary point found.
                           ----------------------------
                           !   Optimized Parameters   !
                           ! (Angstroms and Degrees)  !
 --------------------------                            --------------------------
 ! Name  Definition              Value          Derivative Info.                !
 --------------------------------------------------------------------------------
 ! R1    R(1,2)                  1.3825         -DE/DX =   -0.0001              !
 ! R2    R(1,6)                  1.3056         -DE/DX =   -0.0001              !
 ! R3    R(1,11)                 1.3252         -DE/DX =    0.0                 !
 ! R4    R(2,3)                  1.3914         -DE/DX =    0.0                 !
 ! R5    R(2,10)                 1.3247         -DE/DX =    0.0001              !
 ! R6    R(3,4)                  1.3914         -DE/DX =    0.0                 !
 ! R7    R(3,7)                  1.3474         -DE/DX =    0.0001              !
 ! R8    R(4,5)                  1.3825         -DE/DX =   -0.0001              !
 ! R9    R(4,9)                  1.3247         -DE/DX =    0.0001              !
 ! R10   R(5,6)                  1.3056         -DE/DX =   -0.0001              !
 ! R11   R(5,12)                 1.3252         -DE/DX =    0.0                 !
 ! R12   R(7,8)                  0.9655         -DE/DX =    0.0                 !
 ! A1    A(2,1,6)              123.5878         -DE/DX =    0.0                 !
 ! A2    A(2,1,11)             119.1018         -DE/DX =    0.0                 !
 ! A3    A(6,1,11)             117.3104         -DE/DX =    0.0                 !
 ! A4    A(1,2,3)              118.5944         -DE/DX =    0.0                 !
 ! A5    A(1,2,10)             121.1097         -DE/DX =    0.0                 !
 ! A6    A(3,2,10)             120.2959         -DE/DX =    0.0                 !
 ! A7    A(2,3,4)              117.2725         -DE/DX =   -0.0001              !
 ! A8    A(2,3,7)              121.304          -DE/DX =    0.0                 !
 ! A9    A(4,3,7)              121.304          -DE/DX =    0.0                 !
 ! A10   A(3,4,5)              118.5944         -DE/DX =    0.0                 !
 ! A11   A(3,4,9)              120.2959         -DE/DX =    0.0                 !
 ! A12   A(5,4,9)              121.1097         -DE/DX =    0.0                 !
 ! A13   A(4,5,6)              123.5878         -DE/DX =    0.0                 !
 ! A14   A(4,5,12)             119.1018         -DE/DX =    0.0                 !
 ! A15   A(6,5,12)             117.3104         -DE/DX =    0.0                 !
 ! A16   A(1,6,5)              118.3631         -DE/DX =   -0.0001              !
 ! A17   A(3,7,8)              111.0704         -DE/DX =    0.0                 !
 ! D1    D(6,1,2,3)              0.0138         -DE/DX =    0.0                 !
 ! D2    D(6,1,2,10)           179.971          -DE/DX =    0.0                 !
 ! D3    D(11,1,2,3)          -179.9417         -DE/DX =    0.0                 !
 ! D4    D(11,1,2,10)            0.0155         -DE/DX =    0.0                 !
 ! D5    D(2,1,6,5)              0.0054         -DE/DX =    0.0                 !
 ! D6    D(11,1,6,5)           179.9616         -DE/DX =    0.0                 !
 ! D7    D(1,2,3,4)             -0.0318         -DE/DX =    0.0                 !
 ! D8    D(1,2,3,7)           -176.1078         -DE/DX =    0.0                 !
 ! D9    D(10,2,3,4)          -179.9893         -DE/DX =    0.0                 !
 ! D10   D(10,2,3,7)             3.9347         -DE/DX =    0.0                 !
 ! D11   D(2,3,4,5)              0.0318         -DE/DX =    0.0                 !
 ! D12   D(2,3,4,9)            179.9893         -DE/DX =    0.0                 !
 ! D13   D(7,3,4,5)            176.1078         -DE/DX =    0.0                 !
 ! D14   D(7,3,4,9)             -3.9347         -DE/DX =    0.0                 !
 ! D15   D(2,3,7,8)            -92.0412         -DE/DX =    0.0                 !
 ! D16   D(4,3,7,8)             92.0412         -DE/DX =    0.0                 !
 ! D17   D(3,4,5,6)             -0.0138         -DE/DX =    0.0                 !
 ! D18   D(3,4,5,12)           179.9417         -DE/DX =    0.0                 !
 ! D19   D(9,4,5,6)           -179.971          -DE/DX =    0.0                 !
 ! D20   D(9,4,5,12)            -0.0155         -DE/DX =    0.0                 !
 ! D21   D(4,5,6,1)             -0.0054         -DE/DX =    0.0                 !
 ! D22   D(12,5,6,1)          -179.9616         -DE/DX =    0.0                 !
 --------------------------------------------------------------------------------
 GradGradGradGradGradGradGradGradGradGradGradGradGradGradGradGradGradGrad

 Leave Link  103 at Fri May  3 19:33:27 2024, MaxMem=  8053063680 cpu:               0.1 elap:               0.0
 (Enter /share/apps/g16.b01_avx2/g16/l9999.exe)

 ----------------------------------------------------------------------

 Electric dipole moment (input orientation):
 (Debye = 10**-18 statcoulomb cm , SI units = C m)
                  (au)            (Debye)         (10**-30 SI)
   Tot        0.140736D+01      0.357716D+01      0.119321D+02
   x          0.120458D+01      0.306175D+01      0.102129D+02
   y          0.440854D-01      0.112054D+00      0.373772D+00
   z          0.726434D+00      0.184641D+01      0.615897D+01

 Dipole polarizability, Alpha (input orientation).
 (esu units = cm**3 , SI units = C**2 m**2 J**-1)
 Alpha(0;0):
               (au)            (10**-24 esu)      (10**-40 SI)
   iso        0.852115D+02      0.126270D+02      0.140495D+02
   aniso      0.557778D+02      0.826542D+01      0.919652D+01
   xx         0.102816D+03      0.152358D+02      0.169521D+02
   yx        -0.688118D-01     -0.101969D-01     -0.113455D-01
   yy         0.104706D+03      0.155159D+02      0.172637D+02
   zx         0.196351D+01      0.290963D+00      0.323740D+00
   zy         0.634845D-01      0.940743D-02      0.104672D-01
   zz         0.481116D+02      0.712941D+01      0.793254D+01

 ----------------------------------------------------------------------

 Dipole orientation:
     6         -1.79336022         -2.80345392         -3.15593911
     6         -0.47742920         -2.88182918         -0.90032013
     6          0.12794415         -0.61316600          0.28289385
     6         -0.64089458          1.60543616         -0.90032050
     6         -1.94763490          1.43151995         -3.15593949
     7         -2.50578196         -0.70910970         -4.24849117
     8          1.53286332         -0.56198639          2.40587205
     1          0.47624416         -0.60047790          3.89274299
     9         -0.12481043          3.82889927          0.12731044
     9          0.19906809         -5.06184788          0.12731126
     9         -2.38179946         -4.95307790         -4.29811489
     9         -2.69092297          3.53263059         -4.29811565

 Electric dipole moment (dipole orientation):
 (Debye = 10**-18 statcoulomb cm , SI units = C m)
                  (au)            (Debye)         (10**-30 SI)
   Tot        0.140736D+01      0.357716D+01      0.119321D+02
   x          0.000000D+00      0.000000D+00      0.000000D+00
   y          0.000000D+00      0.000000D+00      0.000000D+00
   z          0.140736D+01      0.357716D+01      0.119321D+02

 Dipole polarizability, Alpha (dipole orientation).
 (esu units = cm**3 , SI units = C**2 m**2 J**-1)
 Alpha(0;0):
               (au)            (10**-24 esu)      (10**-40 SI)
   iso        0.852115D+02      0.126270D+02      0.140495D+02
   aniso      0.557778D+02      0.826542D+01      0.919652D+01
   xx         0.610068D+02      0.904028D+01      0.100587D+02
   yx        -0.159201D+01     -0.235911D+00     -0.262486D+00
   yy         0.104651D+03      0.155077D+02      0.172546D+02
   zx         0.232502D+02      0.344532D+01      0.383344D+01
   zy         0.846973D+00      0.125508D+00      0.139647D+00
   zz         0.899767D+02      0.133332D+02      0.148351D+02

 ----------------------------------------------------------------------
 1\1\GINC-CORNBREAD-16-03\Freq\RPBE1PBE\def2TZVP\C5H1F4N1O1\HILLEL\03-M
 ay-2024\0\\#P Geom=AllCheck Guess=TCheck SCRF=Check GenChk RPBE1PBE/de
 f2TZVP Freq\\tfp-pyridine-OH_product2\\0,1\C,-1.8936469638,-1.51809595
 84,-0.0032849171\C,-0.5113853939,-1.5344677301,0.0180961344\C,0.168860
 1701,-0.3207713962,0.0294848354\C,-0.5980819764,0.8400837119,0.0177519
 286\C,-1.9754691266,0.7229489864,-0.0036097973\N,-2.6029333229,-0.4219
 778487,-0.0137472551\O,1.5141692986,-0.271661494,-0.0278171136\H,1.899
 0087214,-0.2574825718,0.8575255006\F,-0.0123011399,2.0281332235,0.0278
 35222\F,0.1594732778,-2.6766334559,0.0285172825\F,-2.5517877648,-2.668
 3184272,-0.0131075162\F,-2.7157365996,1.8221116648,-0.0137584841\\Vers
 ion=ES64L-G16RevB.01\State=1-A\HF=-720.0277358\RMSD=4.219e-09\RMSF=7.2
 42e-05\ZeroPoint=0.0604977\Thermal=0.0687658\Dipole=1.2045849,0.044085
 4,0.7264343\DipoleDeriv=1.1194652,1.0779652,0.0184588,0.4815113,1.6465
 706,0.0116238,0.001724,0.0127017,0.2354769,0.2143953,-1.1622491,-0.001
 6315,-0.7433816,1.0669485,-0.0026235,-0.0135584,-0.0238786,0.0855112,1
 .683152,0.0439641,0.0425784,0.043962,0.4807825,0.0014885,0.0281868,0.0
 009631,0.0234024,0.0803326,1.090108,-0.0021342,0.6712368,1.2010185,0.0
 021816,-0.0154581,0.0225148,0.0855038,1.235689,-1.1080027,0.0195887,-0
 .5115536,1.53034,-0.0106271,0.0028043,-0.0129288,0.2354839,-0.7877449,
 0.0001339,-0.011515,0.0001343,-0.7914542,-0.0003444,-0.0090508,-0.0002
 544,-0.2670063,-1.6887338,-0.0431527,-0.1184516,-0.0431532,-0.5088601,
 -0.0042872,-0.1219752,-0.0044158,-0.2478926,0.4901972,0.0025181,0.0860
 238,0.0025253,0.4216626,0.0031281,0.1360969,0.0049563,0.3340433,-0.460
 9889,-0.5851603,-0.005964,-0.5325899,-1.3102229,-0.0045104,0.0006364,-
 0.0122697,-0.0939694,-0.5467991,0.640979,-0.0064674,0.5884105,-1.22440
 79,0.004397,-0.0004353,0.0126176,-0.0939743,-0.6205507,-0.6933766,-0.0
 096909,-0.6021361,-1.3051234,-0.0124889,-0.0040653,-0.0090207,-0.14828
 64,-0.7184138,0.736273,-0.010795,0.6450341,-1.2072542,0.0120624,-0.004
 9051,0.0090146,-0.1482926\Polar=102.8163642,-0.0688118,104.7063453,1.9
 635142,0.0634845,48.1116418\Quadrupole=-0.2700949,-4.0293977,4.2994925
 ,0.1380204,4.0130361,0.1477267\PG=C01 [X(C5H1F4N1O1)]\NImag=1\\0.73768
 279,-0.01631877,0.73434057,0.00887046,-0.00035358,0.16041018,-0.327836
 15,-0.04912204,-0.00428982,0.72739364,0.05091266,-0.10002414,0.0010660
 7,-0.01451925,0.73276611,-0.00328511,-0.00070835,-0.06898802,0.0084124
 9,0.00026958,0.13022348,-0.02654210,-0.03244658,-0.00108954,-0.1579054
 8,-0.13395630,-0.00290861,0.73996835,-0.09660561,0.04273049,-0.0015157
 6,-0.04232083,-0.27768096,-0.00162454,0.00148704,0.69937065,0.00006267
 ,-0.00014366,-0.00039645,-0.00212647,-0.00316977,-0.06482546,0.0194441
 5,0.00063442,0.17858753,-0.07578634,0.03489001,-0.00117799,0.08430666,
 0.02772115,0.00087655,-0.17136303,0.05009399,-0.00236759,0.72531007,0.
 02241561,-0.01684685,0.00030465,-0.01746518,-0.05595413,0.00019191,0.1
 4172925,-0.26422207,0.00306549,0.01397650,0.73484967,-0.00113489,0.000
 62912,0.00064033,0.00089416,-0.00011123,-0.00085555,-0.00306150,0.0014
 6637,-0.06482681,0.00841199,0.00016969,0.13022350,0.07437304,-0.015512
 61,0.00124354,-0.07130503,-0.02639784,-0.00107910,-0.03555968,0.090881
 11,0.00002534,-0.32649435,-0.06747287,-0.00331121,0.73529110,0.0286383
 3,-0.10513400,0.00039024,-0.03887225,-0.02132845,-0.00070426,0.0267217
 4,0.05174853,0.00013303,0.03256155,-0.10136612,0.00047661,0.01639081,0
 .73673257,0.00126126,-0.00027030,-0.00712380,-0.00114214,-0.00038366,0
 .00064063,-0.00120528,0.00141813,-0.00039692,-0.00421281,-0.00136740,-
 0.06898783,0.00882240,0.00083281,0.16040984,-0.21036877,0.14143764,-0.
 00225933,-0.02276834,0.02730734,-0.00073005,0.00844405,0.00340941,-0.0
 0036374,-0.01360480,-0.03052611,-0.00059853,-0.19199391,-0.13415335,-0
 .00208757,0.40294444,0.11714766,-0.29162428,0.00175906,0.09479762,0.03
 041389,0.00165965,0.00340946,-0.08481388,-0.00000123,-0.09801634,0.021
 24974,-0.00171177,-0.10986334,-0.31000026,-0.00184861,-0.01434133,0.79
 523719,-0.00217815,0.00215078,-0.06241872,-0.00050870,0.00042914,0.013
 45339,0.00000702,0.00001231,-0.00180700,-0.00044796,-0.00046768,0.0134
 5401,-0.00198507,-0.00223363,-0.06241757,0.00481137,0.00007352,0.09113
 365,0.01283461,0.00102503,-0.00024841,-0.05554533,-0.00433782,0.000698
 87,-0.33026951,-0.00961133,0.02396725,-0.05802726,-0.00015504,0.000567
 50,0.01302103,0.00038982,-0.00036767,-0.00832304,-0.00039259,-0.000087
 97,0.51510552,0.00293959,-0.00633048,-0.00164380,-0.03409917,0.0034211
 5,-0.00176668,-0.00961744,-0.06727879,0.00087320,0.02960541,0.00590303
 ,0.00181460,-0.00152452,-0.00651634,0.00162510,-0.00039262,0.00241514,
 -0.00000360,0.01711791,0.04754291,0.00048986,-0.00029446,0.00666030,-0
 .00258371,0.00186544,0.01054548,-0.01824186,-0.00066788,-0.07981029,-0
 .00245009,-0.00204754,0.01054553,0.00046759,0.00033322,0.00665973,-0.0
 0027205,-0.00001032,-0.00026046,0.16582676,0.00612020,0.50114465,-0.00
 178293,-0.00060559,0.00128914,0.00053925,0.00153161,0.00034121,-0.0376
 9163,-0.00117268,-0.03897777,0.00036561,-0.00153701,0.00043930,-0.0017
 8729,0.00051914,0.00138972,0.00118347,0.00002805,0.00001333,-0.0941784
 9,-0.00383210,-0.14266218,0.13265929,0.00045911,-0.00059949,0.00142869
 ,-0.00391146,0.00044106,0.00135153,-0.00116631,-0.00577006,-0.00142139
 ,0.00390688,0.00061447,-0.00132310,-0.00054638,-0.00059551,-0.00133076
 ,0.00002818,0.00041641,0.00000043,-0.00383905,0.01007310,-0.00527432,0
 .00504827,-0.00470804,-0.00149216,-0.00012032,-0.00016461,0.00322018,-
 0.00038524,0.00029137,0.00501853,0.00018495,0.00612026,0.00318238,0.00
 061893,0.00029161,-0.00149682,0.00001131,-0.00016423,0.00098007,0.0000
 3573,0.00002400,-0.19069496,-0.00702803,-0.44311317,0.18046898,0.00665
 301,0.43698952,0.00342196,0.00452171,0.00005542,-0.00806763,0.00215227
 ,-0.00013738,0.00699020,0.01285059,0.00030764,-0.12980804,-0.11630797,
 -0.00139649,-0.01568537,-0.05206249,-0.00027257,-0.00866719,-0.0007936
 5,-0.00023281,0.00800461,0.00293044,0.00037299,-0.00003076,-0.00063080
 ,-0.00037733,0.14115725,0.00194879,0.00707989,0.00002508,0.00346077,0.
 00539063,-0.00002568,-0.03306903,-0.05308654,-0.00018020,-0.11295849,-
 0.30599552,-0.00172297,-0.00637713,-0.02614462,-0.00032825,-0.00135383
 ,-0.00429148,0.00005979,0.00321562,0.00604158,0.00047230,-0.00021280,0
 .00013921,-0.00063711,0.15215873,0.37458738,0.00011704,0.00002740,0.00
 021915,-0.00026762,-0.00008590,0.00607792,0.00094454,0.00006826,0.0074
 3146,-0.00104841,-0.00144690,-0.03732072,-0.00056740,-0.00087735,0.004
 27015,-0.00021056,0.00007354,0.00635578,0.00027609,-0.00002205,-0.0050
 7838,-0.00097818,-0.00005721,-0.00020432,0.00162177,0.00240154,0.02255
 296,-0.01999129,0.05251232,-0.00031125,-0.14741953,0.12790241,-0.00155
 662,0.00520021,-0.00858864,0.00029614,-0.00758782,-0.00310128,-0.00013
 813,0.00391201,-0.00475332,0.00005852,-0.00880010,0.00046392,-0.000228
 12,0.00844117,-0.00275487,0.00040738,-0.00009120,0.00061383,-0.0004229
 6,0.00195832,0.00105742,-0.00000472,0.16453160,0.00682687,-0.02183835,
 0.00031513,0.12455304,-0.28838311,0.00169057,0.03733116,-0.05129650,0.
 00021956,-0.00440982,0.00491085,0.00001588,-0.00218039,0.00658982,-0.0
 0002283,0.00102410,-0.00415861,-0.00007355,-0.00304008,0.00560490,-0.0
 0044697,0.00019567,0.00019983,0.00060779,-0.00044982,-0.00635143,-0.00
 001520,-0.16751722,0.35121163,-0.00063210,0.00084175,0.00426981,-0.001
 18836,0.00144065,-0.03732164,0.00093616,0.00001772,0.00743141,-0.00027
 204,0.00006646,0.00607789,0.00011940,-0.00002068,0.00021917,-0.0002050
 9,-0.00008565,0.00635582,0.00027477,0.00003901,-0.00507825,-0.00097981
 ,-0.00001439,-0.00020450,-0.00000567,0.00001675,0.00031641,0.00184260,
 -0.00237382,0.02255435,-0.15489783,-0.11770408,-0.00176803,-0.03067419
 ,-0.05812341,-0.00071488,-0.00135285,0.01342413,-0.00013604,0.00878340
 ,0.00070336,0.00008128,-0.01067856,0.00161457,-0.00030440,0.02592060,0
 .01496074,0.00042222,-0.00526645,-0.00277547,-0.00065724,0.00039623,-0
 .00022084,0.00078084,-0.00242828,-0.00484618,-0.00001854,0.00302446,0.
 00242274,0.00013481,0.16482488,-0.12583797,-0.24560403,-0.00190808,-0.
 01638387,-0.03086365,-0.00031960,0.00576900,0.00586677,0.00000225,0.00
 662793,0.00230032,0.00001957,-0.00853616,0.00342223,-0.00015325,-0.005
 85506,-0.07736544,-0.00011933,-0.00485118,-0.00070334,-0.00056499,0.00
 056228,-0.00009431,0.00074849,-0.00500742,-0.00861535,-0.00006363,-0.0
 0123956,0.01137674,0.00000808,0.15239253,0.34492490,-0.00179635,-0.001
 72224,-0.04245579,-0.00059221,-0.00098987,0.01057397,0.00006533,0.0003
 3174,0.00624608,0.00017391,-0.00004270,0.00018444,-0.00028215,0.000017
 19,0.00934765,0.00046391,0.00017133,-0.00193645,-0.00011643,0.00029704
 ,-0.00110753,-0.00016107,-0.00030427,0.00006697,-0.00002216,-0.0000565
 2,-0.00113755,0.00008498,0.00002669,-0.00348288,0.00215311,0.00230929,
 0.02331123,-0.01110698,-0.00267702,-0.00031420,0.00928212,-0.00019283,
 0.00008264,0.00008147,-0.01384718,-0.00013157,-0.03609410,0.05774074,-
 0.00075350,-0.17309299,0.12300543,-0.00193947,0.02603358,-0.00740020,0
 .00041483,-0.00579686,0.00240284,-0.00069744,0.00041845,0.00025857,0.0
 0083327,0.00315493,-0.00302387,0.00013599,-0.00317783,0.00524376,-0.00
 002467,0.00234858,0.00235946,0.00002914,0.18794963,0.00747372,0.003850
 68,0.00013231,-0.00611738,0.00180160,-0.00001413,-0.00619199,0.0044323
 6,-0.00001171,0.01600123,-0.02544337,0.00027722,0.13113931,-0.22740784
 ,0.00182901,0.01341562,-0.07747842,0.00017182,0.00447871,-0.00017286,0
 .00051534,-0.00052484,-0.00011665,-0.00068951,0.00063842,0.01124626,-0
 .00000249,0.00540499,-0.00786576,0.00006412,-0.00184810,-0.00464482,-0
 .00003769,-0.16386969,0.32179883,-0.00028252,-0.00003616,0.00934762,0.
 00017220,0.00005479,0.00018443,0.00009107,-0.00032571,0.00624618,-0.00
 066795,0.00095508,0.01057360,-0.00195651,0.00164151,-0.04245682,0.0004
 7158,-0.00011525,-0.00193645,-0.00009580,-0.00030498,-0.00110760,-0.00
 018267,0.00029177,0.00006709,0.00008658,-0.00002472,-0.00348287,-0.000
 02781,0.00005676,-0.00113759,0.00002687,0.00004120,0.00038985,0.002364
 97,-0.00223429,0.02331255\\-0.00011822,-0.00009329,-0.00003785,0.00014
 459,-0.00015567,-0.00001346,0.00004185,0.00000155,0.00008612,0.0001328
 5,0.00016579,-0.00001350,-0.00012470,0.00008442,-0.00003788,0.00004562
 ,0.00000166,0.00004206,-0.00007418,-0.00000271,-0.00001635,-0.00000676
 ,-0.00000025,-0.00003806,-0.00004569,-0.00010650,-0.00000285,-0.000053
 34,0.00010289,-0.00000288,0.00002843,0.00001660,0.00001733,0.00002956,
 -0.00001448,0.00001733\\\@


 You can't act like a skunk without someone's getting wind of it.
 -- Lorene Workman
 Job cpu time:       0 days  1 hours  3 minutes  2.2 seconds.
 Elapsed time:       0 days  0 hours  3 minutes 58.0 seconds.
 File lengths (MBytes):  RWF=    180 Int=      0 D2E=      0 Chk=     16 Scr=      1
 Normal termination of Gaussian 16 at Fri May  3 19:33:27 2024.
