 Entering Gaussian System, Link 0=g16
 Input=input.com
 Output=input.log
 Initial command:
 /share/apps/g16.b01_avx2/g16/l1.exe "/scratch/Gau-384242.inp" -scrdir="/scratch/"
 Entering Link 1 = /share/apps/g16.b01_avx2/g16/l1.exe PID=    384244.
  
 Copyright (c) 1988-2017, Gaussian, Inc.  All Rights Reserved.
  
 This is part of the Gaussian(R) 16 program.  It is based on
 the Gaussian(R) 09 system (copyright 2009, Gaussian, Inc.),
 the Gaussian(R) 03 system (copyright 2003, Gaussian, Inc.),
 the Gaussian(R) 98 system (copyright 1998, Gaussian, Inc.),
 the Gaussian(R) 94 system (copyright 1995, Gaussian, Inc.),
 the Gaussian 92(TM) system (copyright 1992, Gaussian, Inc.),
 the Gaussian 90(TM) system (copyright 1990, Gaussian, Inc.),
 the Gaussian 88(TM) system (copyright 1988, Gaussian, Inc.),
 the Gaussian 86(TM) system (copyright 1986, Carnegie Mellon
 University), and the Gaussian 82(TM) system (copyright 1983,
 Carnegie Mellon University). Gaussian is a federally registered
 trademark of Gaussian, Inc.
  
 This software contains proprietary and confidential information,
 including trade secrets, belonging to Gaussian, Inc.
  
 This software is provided under written license and may be
 used, copied, transmitted, or stored only in accord with that
 written license.
  
 The following legend is applicable only to US Government
 contracts under FAR:
  
                    RESTRICTED RIGHTS LEGEND
  
 Use, reproduction and disclosure by the US Government is
 subject to restrictions as set forth in subparagraphs (a)
 and (c) of the Commercial Computer Software - Restricted
 Rights clause in FAR 52.227-19.
  
 Gaussian, Inc.
 340 Quinnipiac St., Bldg. 40, Wallingford CT 06492
  
  
 ---------------------------------------------------------------
 Warning -- This program may not be used in any manner that
 competes with the business of Gaussian, Inc. or will provide
 assistance to any competitor of Gaussian, Inc.  The licensee
 of this program is prohibited from giving any competitor of
 Gaussian, Inc. access to this program.  By using this program,
 the user acknowledges that Gaussian, Inc. is engaged in the
 business of creating and licensing software in the field of
 computational chemistry and represents and warrants to the
 licensee that it is not a competitor of Gaussian, Inc. and that
 it will not use this program in any manner prohibited above.
 ---------------------------------------------------------------
  

 Cite this work as:
 Gaussian 16, Revision B.01,
 M. J. Frisch, G. W. Trucks, H. B. Schlegel, G. E. Scuseria, 
 M. A. Robb, J. R. Cheeseman, G. Scalmani, V. Barone, 
 G. A. Petersson, H. Nakatsuji, X. Li, M. Caricato, A. V. Marenich, 
 J. Bloino, B. G. Janesko, R. Gomperts, B. Mennucci, H. P. Hratchian, 
 J. V. Ortiz, A. F. Izmaylov, J. L. Sonnenberg, D. Williams-Young, 
 F. Ding, F. Lipparini, F. Egidi, J. Goings, B. Peng, A. Petrone, 
 T. Henderson, D. Ranasinghe, V. G. Zakrzewski, J. Gao, N. Rega, 
 G. Zheng, W. Liang, M. Hada, M. Ehara, K. Toyota, R. Fukuda, 
 J. Hasegawa, M. Ishida, T. Nakajima, Y. Honda, O. Kitao, H. Nakai, 
 T. Vreven, K. Throssell, J. A. Montgomery, Jr., J. E. Peralta, 
 F. Ogliaro, M. J. Bearpark, J. J. Heyd, E. N. Brothers, K. N. Kudin, 
 V. N. Staroverov, T. A. Keith, R. Kobayashi, J. Normand, 
 K. Raghavachari, A. P. Rendell, J. C. Burant, S. S. Iyengar, 
 J. Tomasi, M. Cossi, J. M. Millam, M. Klene, C. Adamo, R. Cammi, 
 J. W. Ochterski, R. L. Martin, K. Morokuma, O. Farkas, 
 J. B. Foresman, and D. J. Fox, Gaussian, Inc., Wallingford CT, 2016.
 
 ******************************************
 Gaussian 16:  ES64L-G16RevB.01 20-Dec-2017
                29-Aug-2024 
 ******************************************
 %nproc=24
 Will use up to   24 processors via shared memory.
 %mem=64GB
 ----------------------------------------------------------------------
 #P PBE1PBE/def2TZVP opt=(calcfc, ts, noeigentest) freq EmpiricalDisper
 sion=GD3 Int=(grid=99590) scrf=(iefpcm, solvent=water)
 ----------------------------------------------------------------------
 1/5=1,10=4,11=1,18=20,26=6,38=1/1,3;
 2/9=110,12=2,17=6,18=5,40=1/2;
 3/5=44,7=101,11=2,25=1,30=1,70=2201,71=2,72=1,74=-13,75=99590,124=31,140=1/1,2,3;
 4//1;
 5/5=2,38=5,53=1/2;
 8/6=4,10=90,11=11/1;
 11/6=1,8=1,9=11,15=111,16=1/1,2,10;
 10/6=1,13=1/2;
 6/7=2,8=2,9=2,10=2,28=1/1;
 7/10=1,18=20,25=1/1,2,3,16;
 1/5=1,10=4,11=1,18=20,26=6/3(2);
 2/9=110/2;
 99//99;
 2/9=110/2;
 3/5=44,7=101,11=2,25=1,30=1,70=2205,71=1,72=1,74=-13,75=99590,124=31/1,2,3;
 4/5=5,16=3,69=1/1;
 5/5=2,38=5,53=1/2;
 7//1,2,3,16;
 1/5=1,11=1,18=20,26=6/3(-5);
 2/9=110/2;
 6/7=2,8=2,9=2,10=2,19=2,28=1/1;
 99/9=1/99;
 Leave Link    1 at Thu Aug 29 01:33:27 2024, MaxMem=  8589934592 cpu:               0.7 elap:               0.0
 (Enter /share/apps/g16.b01_avx2/g16/l101.exe)
 -----------------
 pfp-ome_ester ts1
 -----------------
 Symbolic Z-matrix:
 Charge =  0 Multiplicity = 1
 H                    -2.32657   1.6415    0.16261 
 O                    -1.82377  -0.72564   1.24022 
 C                    -2.25774  -0.58416   0.10109 
 N                    -3.09036   0.98771   0.02173 
 H                    -3.43878   1.13929  -0.92016 
 C                    -4.12976   1.15763   1.03776 
 H                    -5.02708   0.61666   0.7535 
 H                    -3.75319   0.75212   1.97633 
 H                    -4.3764    2.21118   1.17101 
 C                    -3.25176  -1.51776  -0.5476 
 H                    -4.17552  -1.55471   0.0244 
 H                    -3.47395  -1.2359   -1.57636 
 O                    -1.25866  -0.2855   -0.97109 
 C                     0.00867  -0.13136  -0.55521 
 C                     0.58166   1.13112  -0.45166 
 C                     0.81427  -1.22603  -0.25672 
 C                     1.90334   1.30492  -0.08103 
 C                     2.13532  -1.06893   0.12258 
 C                     2.68342   0.19976   0.21041 
 F                    -0.15878   2.20851  -0.71158 
 F                     0.31675  -2.45299  -0.35147 
 F                     2.42292   2.52395   0.00314 
 F                     2.88397  -2.13066   0.39819 
 F                     3.95125   0.35432   0.56926 
 O                    -2.66773  -2.82303  -0.54029 
 C                    -3.68407  -3.80204  -0.7716 
 H                    -3.23712  -4.7722   -0.83427 
 H                    -4.38653  -3.78441   0.03533 
 H                    -4.18904  -3.58204  -1.68894 
 
 Add virtual bond connecting atoms N4         and C3         Dist= 3.36D+00.
 ITRead=  0  0  0  0  0  0  0  0  0  0  0  0  0  0  0  0  0  0  0  0
 ITRead=  0  0  0  0  0  0  0  0  0
 MicOpt= -1 -1 -1 -1 -1 -1 -1 -1 -1 -1 -1 -1 -1 -1 -1 -1 -1 -1 -1 -1
 MicOpt= -1 -1 -1 -1 -1 -1 -1 -1 -1
 NAtoms=     29 NQM=       29 NQMF=       0 NMMI=      0 NMMIF=      0
                NMic=       0 NMicF=      0.
                    Isotopes and Nuclear Properties:
 (Nuclear quadrupole moments (NQMom) in fm**2, nuclear magnetic moments (NMagM)
  in nuclear magnetons)

  Atom         1           2           3           4           5           6           7           8           9          10
 IAtWgt=           1          16          12          14           1          12           1           1           1          12
 AtmWgt=   1.0078250  15.9949146  12.0000000  14.0030740   1.0078250  12.0000000   1.0078250   1.0078250   1.0078250  12.0000000
 NucSpn=           1           0           0           2           1           0           1           1           1           0
 AtZEff=  -0.0000000  -0.0000000  -0.0000000  -0.0000000  -0.0000000  -0.0000000  -0.0000000  -0.0000000  -0.0000000  -0.0000000
 NQMom=    0.0000000   0.0000000   0.0000000   2.0440000   0.0000000   0.0000000   0.0000000   0.0000000   0.0000000   0.0000000
 NMagM=    2.7928460   0.0000000   0.0000000   0.4037610   2.7928460   0.0000000   2.7928460   2.7928460   2.7928460   0.0000000
 AtZNuc=   1.0000000   8.0000000   6.0000000   7.0000000   1.0000000   6.0000000   1.0000000   1.0000000   1.0000000   6.0000000

  Atom        11          12          13          14          15          16          17          18          19          20
 IAtWgt=           1           1          16          12          12          12          12          12          12          19
 AtmWgt=   1.0078250   1.0078250  15.9949146  12.0000000  12.0000000  12.0000000  12.0000000  12.0000000  12.0000000  18.9984032
 NucSpn=           1           1           0           0           0           0           0           0           0           1
 AtZEff=  -0.0000000  -0.0000000  -0.0000000  -0.0000000  -0.0000000  -0.0000000  -0.0000000  -0.0000000  -0.0000000  -0.0000000
 NQMom=    0.0000000   0.0000000   0.0000000   0.0000000   0.0000000   0.0000000   0.0000000   0.0000000   0.0000000   0.0000000
 NMagM=    2.7928460   2.7928460   0.0000000   0.0000000   0.0000000   0.0000000   0.0000000   0.0000000   0.0000000   2.6288670
 AtZNuc=   1.0000000   1.0000000   8.0000000   6.0000000   6.0000000   6.0000000   6.0000000   6.0000000   6.0000000   9.0000000

  Atom        21          22          23          24          25          26          27          28          29
 IAtWgt=          19          19          19          19          16          12           1           1           1
 AtmWgt=  18.9984032  18.9984032  18.9984032  18.9984032  15.9949146  12.0000000   1.0078250   1.0078250   1.0078250
 NucSpn=           1           1           1           1           0           0           1           1           1
 AtZEff=  -0.0000000  -0.0000000  -0.0000000  -0.0000000  -0.0000000  -0.0000000  -0.0000000  -0.0000000  -0.0000000
 NQMom=    0.0000000   0.0000000   0.0000000   0.0000000   0.0000000   0.0000000   0.0000000   0.0000000   0.0000000
 NMagM=    2.6288670   2.6288670   2.6288670   2.6288670   0.0000000   0.0000000   2.7928460   2.7928460   2.7928460
 AtZNuc=   9.0000000   9.0000000   9.0000000   9.0000000   8.0000000   6.0000000   1.0000000   1.0000000   1.0000000
 Leave Link  101 at Thu Aug 29 01:33:27 2024, MaxMem=  8589934592 cpu:               6.4 elap:               0.3
 (Enter /share/apps/g16.b01_avx2/g16/l103.exe)

 GradGradGradGradGradGradGradGradGradGradGradGradGradGradGradGradGradGrad
 Berny optimization.
 Initialization pass.
                           ----------------------------
                           !    Initial Parameters    !
                           ! (Angstroms and Degrees)  !
 --------------------------                            --------------------------
 ! Name  Definition              Value          Derivative Info.                !
 --------------------------------------------------------------------------------
 ! R1    R(1,4)                  1.0152         calculate D2E/DX2 analytically  !
 ! R2    R(2,3)                  1.2272         calculate D2E/DX2 analytically  !
 ! R3    R(3,4)                  1.7805         calculate D2E/DX2 analytically  !
 ! R4    R(3,10)                 1.5101         calculate D2E/DX2 analytically  !
 ! R5    R(3,13)                 1.4956         calculate D2E/DX2 analytically  !
 ! R6    R(4,5)                  1.0156         calculate D2E/DX2 analytically  !
 ! R7    R(4,6)                  1.4634         calculate D2E/DX2 analytically  !
 ! R8    R(6,7)                  1.0856         calculate D2E/DX2 analytically  !
 ! R9    R(6,8)                  1.0896         calculate D2E/DX2 analytically  !
 ! R10   R(6,9)                  1.0902         calculate D2E/DX2 analytically  !
 ! R11   R(10,11)                1.0871         calculate D2E/DX2 analytically  !
 ! R12   R(10,12)                1.0896         calculate D2E/DX2 analytically  !
 ! R13   R(10,25)                1.43           calculate D2E/DX2 analytically  !
 ! R14   R(13,14)                1.3427         calculate D2E/DX2 analytically  !
 ! R15   R(14,15)                1.3903         calculate D2E/DX2 analytically  !
 ! R16   R(14,16)                1.3915         calculate D2E/DX2 analytically  !
 ! R17   R(15,17)                1.3836         calculate D2E/DX2 analytically  !
 ! R18   R(15,20)                1.3329         calculate D2E/DX2 analytically  !
 ! R19   R(16,18)                1.3834         calculate D2E/DX2 analytically  !
 ! R20   R(16,21)                1.3274         calculate D2E/DX2 analytically  !
 ! R21   R(17,19)                1.3838         calculate D2E/DX2 analytically  !
 ! R22   R(17,22)                1.3278         calculate D2E/DX2 analytically  !
 ! R23   R(18,19)                1.3848         calculate D2E/DX2 analytically  !
 ! R24   R(18,23)                1.328          calculate D2E/DX2 analytically  !
 ! R25   R(19,24)                1.3267         calculate D2E/DX2 analytically  !
 ! R26   R(25,26)                1.43           calculate D2E/DX2 analytically  !
 ! R27   R(26,27)                1.07           calculate D2E/DX2 analytically  !
 ! R28   R(26,28)                1.07           calculate D2E/DX2 analytically  !
 ! R29   R(26,29)                1.07           calculate D2E/DX2 analytically  !
 ! A1    A(2,3,4)              107.9698         calculate D2E/DX2 analytically  !
 ! A2    A(2,3,10)             124.0725         calculate D2E/DX2 analytically  !
 ! A3    A(2,3,13)             116.8869         calculate D2E/DX2 analytically  !
 ! A4    A(4,3,10)             102.6399         calculate D2E/DX2 analytically  !
 ! A5    A(4,3,13)              95.977          calculate D2E/DX2 analytically  !
 ! A6    A(10,3,13)            104.7864         calculate D2E/DX2 analytically  !
 ! A7    A(1,4,3)              102.1534         calculate D2E/DX2 analytically  !
 ! A8    A(1,4,5)              106.8978         calculate D2E/DX2 analytically  !
 ! A9    A(1,4,6)              111.2992         calculate D2E/DX2 analytically  !
 ! A10   A(3,4,5)              109.4823         calculate D2E/DX2 analytically  !
 ! A11   A(3,4,6)              113.8094         calculate D2E/DX2 analytically  !
 ! A12   A(5,4,6)              112.5123         calculate D2E/DX2 analytically  !
 ! A13   A(4,6,7)              110.3289         calculate D2E/DX2 analytically  !
 ! A14   A(4,6,8)              108.0218         calculate D2E/DX2 analytically  !
 ! A15   A(4,6,9)              110.9623         calculate D2E/DX2 analytically  !
 ! A16   A(7,6,8)              109.0111         calculate D2E/DX2 analytically  !
 ! A17   A(7,6,9)              109.0598         calculate D2E/DX2 analytically  !
 ! A18   A(8,6,9)              109.4245         calculate D2E/DX2 analytically  !
 ! A19   A(3,10,11)            110.7514         calculate D2E/DX2 analytically  !
 ! A20   A(3,10,12)            112.3267         calculate D2E/DX2 analytically  !
 ! A21   A(3,10,25)            107.0541         calculate D2E/DX2 analytically  !
 ! A22   A(11,10,12)           109.4088         calculate D2E/DX2 analytically  !
 ! A23   A(11,10,25)           108.2595         calculate D2E/DX2 analytically  !
 ! A24   A(12,10,25)           108.9191         calculate D2E/DX2 analytically  !
 ! A25   A(3,13,14)            115.5556         calculate D2E/DX2 analytically  !
 ! A26   A(13,14,15)           121.0857         calculate D2E/DX2 analytically  !
 ! A27   A(13,14,16)           121.504          calculate D2E/DX2 analytically  !
 ! A28   A(15,14,16)           117.3723         calculate D2E/DX2 analytically  !
 ! A29   A(14,15,17)           121.8508         calculate D2E/DX2 analytically  !
 ! A30   A(14,15,20)           119.3755         calculate D2E/DX2 analytically  !
 ! A31   A(17,15,20)           118.7734         calculate D2E/DX2 analytically  !
 ! A32   A(14,16,18)           121.4881         calculate D2E/DX2 analytically  !
 ! A33   A(14,16,21)           119.6596         calculate D2E/DX2 analytically  !
 ! A34   A(18,16,21)           118.847          calculate D2E/DX2 analytically  !
 ! A35   A(15,17,19)           119.6426         calculate D2E/DX2 analytically  !
 ! A36   A(15,17,22)           120.4039         calculate D2E/DX2 analytically  !
 ! A37   A(19,17,22)           119.9524         calculate D2E/DX2 analytically  !
 ! A38   A(16,18,19)           119.9596         calculate D2E/DX2 analytically  !
 ! A39   A(16,18,23)           120.2943         calculate D2E/DX2 analytically  !
 ! A40   A(19,18,23)           119.7455         calculate D2E/DX2 analytically  !
 ! A41   A(17,19,18)           119.6832         calculate D2E/DX2 analytically  !
 ! A42   A(17,19,24)           120.1759         calculate D2E/DX2 analytically  !
 ! A43   A(18,19,24)           120.1407         calculate D2E/DX2 analytically  !
 ! A44   A(10,25,26)           109.5            calculate D2E/DX2 analytically  !
 ! A45   A(25,26,27)           109.4712         calculate D2E/DX2 analytically  !
 ! A46   A(25,26,28)           109.4712         calculate D2E/DX2 analytically  !
 ! A47   A(25,26,29)           109.4712         calculate D2E/DX2 analytically  !
 ! A48   A(27,26,28)           109.4713         calculate D2E/DX2 analytically  !
 ! A49   A(27,26,29)           109.4712         calculate D2E/DX2 analytically  !
 ! A50   A(28,26,29)           109.4712         calculate D2E/DX2 analytically  !
 ! D1    D(2,3,4,1)             65.5037         calculate D2E/DX2 analytically  !
 ! D2    D(2,3,4,5)            178.5561         calculate D2E/DX2 analytically  !
 ! D3    D(2,3,4,6)            -54.5728         calculate D2E/DX2 analytically  !
 ! D4    D(10,3,4,1)          -161.9384         calculate D2E/DX2 analytically  !
 ! D5    D(10,3,4,5)           -48.886          calculate D2E/DX2 analytically  !
 ! D6    D(10,3,4,6)            77.9851         calculate D2E/DX2 analytically  !
 ! D7    D(13,3,4,1)           -55.292          calculate D2E/DX2 analytically  !
 ! D8    D(13,3,4,5)            57.7604         calculate D2E/DX2 analytically  !
 ! D9    D(13,3,4,6)          -175.3685         calculate D2E/DX2 analytically  !
 ! D10   D(2,3,10,11)           59.7405         calculate D2E/DX2 analytically  !
 ! D11   D(2,3,10,12)         -177.5922         calculate D2E/DX2 analytically  !
 ! D12   D(2,3,10,25)          -58.0798         calculate D2E/DX2 analytically  !
 ! D13   D(4,3,10,11)          -62.4938         calculate D2E/DX2 analytically  !
 ! D14   D(4,3,10,12)           60.1735         calculate D2E/DX2 analytically  !
 ! D15   D(4,3,10,25)          179.6859         calculate D2E/DX2 analytically  !
 ! D16   D(13,3,10,11)        -162.2564         calculate D2E/DX2 analytically  !
 ! D17   D(13,3,10,12)         -39.589          calculate D2E/DX2 analytically  !
 ! D18   D(13,3,10,25)          79.9233         calculate D2E/DX2 analytically  !
 ! D19   D(2,3,13,14)           -3.4956         calculate D2E/DX2 analytically  !
 ! D20   D(4,3,13,14)          110.1379         calculate D2E/DX2 analytically  !
 ! D21   D(10,3,13,14)        -145.0772         calculate D2E/DX2 analytically  !
 ! D22   D(1,4,6,7)            167.474          calculate D2E/DX2 analytically  !
 ! D23   D(1,4,6,8)            -73.4581         calculate D2E/DX2 analytically  !
 ! D24   D(1,4,6,9)             46.4856         calculate D2E/DX2 analytically  !
 ! D25   D(3,4,6,7)            -77.7537         calculate D2E/DX2 analytically  !
 ! D26   D(3,4,6,8)             41.3142         calculate D2E/DX2 analytically  !
 ! D27   D(3,4,6,9)            161.2579         calculate D2E/DX2 analytically  !
 ! D28   D(5,4,6,7)             47.5206         calculate D2E/DX2 analytically  !
 ! D29   D(5,4,6,8)            166.5885         calculate D2E/DX2 analytically  !
 ! D30   D(5,4,6,9)            -73.4678         calculate D2E/DX2 analytically  !
 ! D31   D(3,10,25,26)         163.1852         calculate D2E/DX2 analytically  !
 ! D32   D(11,10,25,26)         43.7478         calculate D2E/DX2 analytically  !
 ! D33   D(12,10,25,26)        -75.1334         calculate D2E/DX2 analytically  !
 ! D34   D(3,13,14,15)        -103.5116         calculate D2E/DX2 analytically  !
 ! D35   D(3,13,14,16)          78.7882         calculate D2E/DX2 analytically  !
 ! D36   D(13,14,15,17)       -177.1331         calculate D2E/DX2 analytically  !
 ! D37   D(13,14,15,20)          3.068          calculate D2E/DX2 analytically  !
 ! D38   D(16,14,15,17)          0.6589         calculate D2E/DX2 analytically  !
 ! D39   D(16,14,15,20)       -179.14           calculate D2E/DX2 analytically  !
 ! D40   D(13,14,16,18)        177.4962         calculate D2E/DX2 analytically  !
 ! D41   D(13,14,16,21)         -1.6568         calculate D2E/DX2 analytically  !
 ! D42   D(15,14,16,18)         -0.2859         calculate D2E/DX2 analytically  !
 ! D43   D(15,14,16,21)       -179.4389         calculate D2E/DX2 analytically  !
 ! D44   D(14,15,17,19)         -0.6664         calculate D2E/DX2 analytically  !
 ! D45   D(14,15,17,22)        179.7045         calculate D2E/DX2 analytically  !
 ! D46   D(20,15,17,19)        179.1338         calculate D2E/DX2 analytically  !
 ! D47   D(20,15,17,22)         -0.4954         calculate D2E/DX2 analytically  !
 ! D48   D(14,16,18,19)         -0.0743         calculate D2E/DX2 analytically  !
 ! D49   D(14,16,18,23)       -179.795          calculate D2E/DX2 analytically  !
 ! D50   D(21,16,18,19)        179.0854         calculate D2E/DX2 analytically  !
 ! D51   D(21,16,18,23)         -0.6353         calculate D2E/DX2 analytically  !
 ! D52   D(15,17,19,18)          0.2809         calculate D2E/DX2 analytically  !
 ! D53   D(15,17,19,24)       -179.8754         calculate D2E/DX2 analytically  !
 ! D54   D(22,17,19,18)        179.9118         calculate D2E/DX2 analytically  !
 ! D55   D(22,17,19,24)         -0.2446         calculate D2E/DX2 analytically  !
 ! D56   D(16,18,19,17)          0.0802         calculate D2E/DX2 analytically  !
 ! D57   D(16,18,19,24)       -179.7635         calculate D2E/DX2 analytically  !
 ! D58   D(23,18,19,17)        179.8024         calculate D2E/DX2 analytically  !
 ! D59   D(23,18,19,24)         -0.0413         calculate D2E/DX2 analytically  !
 ! D60   D(10,25,26,27)        176.0704         calculate D2E/DX2 analytically  !
 ! D61   D(10,25,26,28)        -63.9295         calculate D2E/DX2 analytically  !
 ! D62   D(10,25,26,29)         56.0705         calculate D2E/DX2 analytically  !
 --------------------------------------------------------------------------------
 Trust Radius=3.00D-01 FncErr=5.00D-06 GrdErr=5.00D-06 EigMax=2.50D+02 EigMin=1.00D-04
 Number of steps in this run=    151 maximum allowed number of steps=    174.
 Search for a saddle point of order  1.
 GradGradGradGradGradGradGradGradGradGradGradGradGradGradGradGradGradGrad

 Leave Link  103 at Thu Aug 29 01:33:27 2024, MaxMem=  8589934592 cpu:               0.2 elap:               0.0
 (Enter /share/apps/g16.b01_avx2/g16/l202.exe)
                          Input orientation:                          
 ---------------------------------------------------------------------
 Center     Atomic      Atomic             Coordinates (Angstroms)
 Number     Number       Type             X           Y           Z
 ---------------------------------------------------------------------
      1          1           0       -2.326566    1.641504    0.162606
      2          8           0       -1.823772   -0.725639    1.240224
      3          6           0       -2.257745   -0.584160    0.101089
      4          7           0       -3.090357    0.987705    0.021728
      5          1           0       -3.438781    1.139293   -0.920164
      6          6           0       -4.129761    1.157628    1.037757
      7          1           0       -5.027080    0.616655    0.753504
      8          1           0       -3.753187    0.752118    1.976328
      9          1           0       -4.376399    2.211177    1.171006
     10          6           0       -3.251764   -1.517757   -0.547600
     11          1           0       -4.175523   -1.554709    0.024398
     12          1           0       -3.473947   -1.235900   -1.576364
     13          8           0       -1.258660   -0.285496   -0.971088
     14          6           0        0.008670   -0.131356   -0.555206
     15          6           0        0.581659    1.131115   -0.451657
     16          6           0        0.814272   -1.226032   -0.256722
     17          6           0        1.903338    1.304921   -0.081032
     18          6           0        2.135320   -1.068935    0.122576
     19          6           0        2.683421    0.199763    0.210406
     20          9           0       -0.158784    2.208505   -0.711581
     21          9           0        0.316746   -2.452994   -0.351468
     22          9           0        2.422915    2.523947    0.003140
     23          9           0        2.883973   -2.130662    0.398185
     24          9           0        3.951251    0.354320    0.569262
     25          8           0       -2.667729   -2.823035   -0.540292
     26          6           0       -3.684071   -3.802038   -0.771600
     27          1           0       -3.237122   -4.772197   -0.834272
     28          1           0       -4.386529   -3.784413    0.035333
     29          1           0       -4.189039   -3.582043   -1.688938
 ---------------------------------------------------------------------
                    Distance matrix (angstroms):
                    1          2          3          4          5
     1  H    0.000000
     2  O    2.649043   0.000000
     3  C    2.227577   1.227183   0.000000
     4  N    1.015222   2.454489   1.780534   0.000000
     5  H    1.631450   3.279253   2.325531   1.015647   0.000000
     6  C    2.061926   2.984170   2.723163   1.463403   2.076354
     7  H    2.948263   3.507112   3.088174   2.103347   2.365800
     8  H    2.473023   2.539342   2.745634   2.077331   2.939119
     9  H    2.354403   3.891733   3.667060   2.114622   2.530031
    10  C    3.367687   2.421348   1.510124   2.574398   2.689553
    11  H    3.695067   2.774225   2.150749   2.764319   2.948327
    12  H    3.552457   3.304030   2.172041   2.765042   2.464422
    13  O    2.477703   2.324431   1.495639   2.441688   2.604908
    14  C    3.018545   2.633360   2.402580   3.345014   3.692243
    15  C    3.015889   3.477944   3.363021   3.705180   4.047654
    16  C    4.273577   3.074169   3.158689   4.497143   4.911556
    17  C    4.250263   4.445249   4.573446   5.004815   5.410158
    18  C    5.220777   4.128123   4.419784   5.616728   6.085571
    19  C    5.213528   4.715049   5.004159   5.830349   6.296210
    20  F    2.405197   3.897554   3.586788   3.259174   3.456169
    21  F    4.900641   3.177901   3.213309   4.856546   5.227994
    22  F    4.833395   5.488582   5.619475   5.723334   6.093376
    23  F    6.436960   4.984574   5.377471   6.749708   7.239328
    24  F    6.421308   5.913323   6.296949   7.091207   7.579390
    25  O    4.532391   2.877771   2.364744   3.875076   4.054487
    26  C    5.687504   4.119754   3.626393   4.891166   4.949645
    27  H    6.554269   4.761903   4.401560   5.825010   5.915552
    28  H    5.805189   4.168403   3.844173   4.945034   5.104320
    29  H    5.846578   4.725836   3.990163   5.001608   4.841995
                    6          7          8          9         10
     6  C    0.000000
     7  H    1.085649   0.000000
     8  H    1.089570   1.771003   0.000000
     9  H    1.090207   1.772059   1.779267   0.000000
    10  C    3.231396   3.065996   3.431322   4.257154   0.000000
    11  H    2.895818   2.443679   3.051205   3.941695   1.087142
    12  H    3.604538   3.357449   4.080663   4.499422   1.089571
    13  O    3.789629   4.241354   3.998321   4.532355   2.381233
    14  C    4.617967   5.256522   4.619606   5.262708   3.542964
    15  C    4.941309   5.759777   4.982935   5.327467   4.660564
    16  C    5.639235   6.207854   5.455389   6.387165   4.086852
    17  C    6.137725   7.014332   6.044386   6.467147   5.895784
    18  C    6.711660   7.385070   6.436392   7.366195   5.447132
    19  C    6.929752   7.740838   6.697275   7.403350   6.225020
    20  F    4.464659   5.327360   4.718649   4.618703   4.845456
    21  F    5.893892   6.261005   5.679413   6.789553   3.694239
    22  F    6.773096   7.726787   6.721390   6.905969   6.988610
    23  F    7.772668   8.382050   7.406271   8.494811   6.238384
    24  F    8.134344   8.984052   7.841967   8.553348   7.525655
    25  O    4.524760   4.367140   4.504810   5.584924   1.430000
    26  C    5.298179   4.863585   5.319419   6.357027   2.335595
    27  H    6.282048   5.896161   6.219634   7.354360   3.267074
    28  H    5.049213   4.505050   4.974806   6.102209   2.601006
    29  H    5.468351   4.929189   5.692899   6.463419   2.538191
                   11         12         13         14         15
    11  H    0.000000
    12  H    1.776594   0.000000
    13  O    3.333164   2.485382   0.000000
    14  C    4.457504   3.793600   1.342700   0.000000
    15  C    5.483709   4.828630   2.379783   1.390278   0.000000
    16  C    5.008504   4.486689   2.385786   1.391547   2.376605
    17  C    6.718716   6.132453   3.649638   2.424355   1.383621
    18  C    6.330273   5.863288   3.650887   2.420967   2.753875
    19  C    7.082223   6.570149   4.143840   2.801802   2.392310
    20  F    5.553165   4.858197   2.738085   2.351052   1.332886
    21  F    4.596594   4.165458   2.750251   2.350835   3.595282
    22  F    7.757272   7.169677   4.732450   3.631937   2.353093
    23  F    7.092808   6.717335   4.737188   3.629538   4.081920
    24  F    8.365747   7.890886   5.470394   4.128469   3.605529
    25  O    2.049626   2.059716   2.934308   3.795849   5.118758
    26  C    2.434261   2.697565   4.276503   5.211244   6.529533
    27  H    3.459789   3.621075   4.905458   5.670136   7.041205
    28  H    2.239693   3.150443   4.799882   5.745550   7.005888
    29  H    2.654390   2.455284   4.468742   5.550978   6.819405
                   16         17         18         19         20
    16  C    0.000000
    17  C    2.760916   0.000000
    18  C    1.383371   2.393839   0.000000
    19  C    2.396835   1.383777   1.384819   0.000000
    20  F    3.598580   2.338034   4.086605   3.600449   0.000000
    21  F    1.327383   4.088072   2.333998   3.599163   4.699509
    22  F    4.088717   1.327806   3.606352   2.347904   2.697313
    23  F    2.351791   3.604792   1.328046   2.346564   5.414640
    24  F    3.608379   2.349569   2.350061   1.326672   4.687318
    25  O    3.841245   6.176212   5.156117   6.191580   5.624992
    26  C    5.209222   7.601121   6.491125   7.584438   6.968348
    27  H    5.415038   7.995190   6.594910   7.801575   7.630296
    28  H    5.803356   8.091804   7.065122   8.117174   7.372027
    29  H    5.712719   7.974010   7.042359   8.070953   7.122404
                   21         22         23         24         25
    21  F    0.000000
    22  F    5.415869   0.000000
    23  F    2.693795   4.694041   0.000000
    24  F    4.683843   2.713593   2.709887   0.000000
    25  O    3.013250   7.402715   5.672875   7.425469   0.000000
    26  C    4.242990   8.826867   6.877579   8.796099   1.430000
    27  H    4.271039   9.272054   6.779709   8.940010   2.051796
    28  H    4.903375   9.282509   7.465036   9.323775   2.051796
    29  H    4.833806   9.157739   7.515989   9.319804   2.051796
                   26         27         28         29
    26  C    0.000000
    27  H    1.070000   0.000000
    28  H    1.070000   1.747303   0.000000
    29  H    1.070000   1.747303   1.747303   0.000000
 Stoichiometry    C10H10F5NO3
 Framework group  C1[X(C10H10F5NO3)]
 Deg. of freedom    81
 Full point group                 C1      NOp   1
 Largest Abelian subgroup         C1      NOp   1
 Largest concise Abelian subgroup C1      NOp   1
                         Standard orientation:                         
 ---------------------------------------------------------------------
 Center     Atomic      Atomic             Coordinates (Angstroms)
 Number     Number       Type             X           Y           Z
 ---------------------------------------------------------------------
      1          1           0       -1.267636    2.525180    0.129975
      2          8           0       -1.442305    0.191130    1.370592
      3          6           0       -1.864806    0.381677    0.234299
      4          7           0       -2.196424    2.121964    0.056171
      5          1           0       -2.525577    2.309353   -0.886210
      6          6           0       -3.092589    2.660435    1.080128
      7          1           0       -4.121648    2.395257    0.857977
      8          1           0       -2.812038    2.222669    2.037632
      9          1           0       -3.009507    3.745851    1.139460
     10          6           0       -3.118705   -0.252028   -0.319444
     11          1           0       -3.985572    0.026103    0.274746
     12          1           0       -3.292639    0.016001   -1.361111
     13          8           0       -0.870615    0.297735   -0.879915
     14          6           0        0.402528    0.092538   -0.505962
     15          6           0        1.328164    1.129864   -0.510730
     16          6           0        0.859613   -1.171152   -0.144623
     17          6           0        2.656984    0.924203   -0.184617
     18          6           0        2.183259   -1.391969    0.191405
     19          6           0        3.086303   -0.342292    0.171070
     20          9           0        0.929821    2.360116   -0.833823
     21          9           0        0.016888   -2.196665   -0.135478
     22          9           0        3.517922    1.934881   -0.204214
     23          9           0        2.594774   -2.608746    0.528770
     24          9           0        4.357521   -0.550942    0.488131
     25          8           0       -2.948350   -1.668863   -0.227476
     26          6           0       -4.218522   -2.312043   -0.361205
     27          1           0       -4.082653   -3.373381   -0.361038
     28          1           0       -4.847680   -2.032878    0.458018
     29          1           0       -4.675640   -2.011129   -1.280658
 ---------------------------------------------------------------------
 Rotational constants (GHZ):           0.5669102           0.2533468           0.1885837
 Leave Link  202 at Thu Aug 29 01:33:27 2024, MaxMem=  8589934592 cpu:               0.1 elap:               0.0
 (Enter /share/apps/g16.b01_avx2/g16/l301.exe)
 Standard basis: def2TZVP (5D, 7F)
 Ernie: Thresh=  0.10000D-02 Tol=  0.10000D-05 Strict=F.
 There are   744 symmetry adapted cartesian basis functions of A   symmetry.
 There are   649 symmetry adapted basis functions of A   symmetry.
   649 basis functions,  1049 primitive gaussians,   744 cartesian basis functions
    73 alpha electrons       73 beta electrons
       nuclear repulsion energy      1615.4389221231 Hartrees.
 IExCor= 1009 DFT=T Ex+Corr=PBE1PBE ExCW=0 ScaHFX=  0.250000
 ScaDFX=  0.750000  0.750000  1.000000  1.000000 ScalE2=  1.000000  1.000000
 IRadAn=  99590 IRanWt=     -1 IRanGd=            0 ICorTp=0 IEmpDi=131
 NAtoms=   29 NActive=   29 NUniq=   29 SFac= 1.00D+00 NAtFMM=   60 NAOKFM=F Big=F
 Integral buffers will be    131072 words long.
 Raffenetti 2 integral format.
 Two-electron integral symmetry is turned on.
 R6Disp:  Grimme-D3 Dispersion energy=       -0.0181128078 Hartrees.
 Nuclear repulsion after empirical dispersion term =     1615.4208093153 Hartrees.
 Force inversion solution in PCM.
 ------------------------------------------------------------------------------
 Polarizable Continuum Model (PCM)
 =================================
 Model                : PCM.
 Atomic radii         : UFF (Universal Force Field).
 Polarization charges : Total charges.
 Charge compensation  : None.
 Solution method      : Matrix inversion.
 Cavity type          : Scaled VdW (van der Waals Surface) (Alpha=1.100).
 Cavity algorithm     : GePol (No added spheres)
                        Default sphere list used, NSphG=   29.
                        Lebedev-Laikov grids with approx.  5.0 points / Ang**2.
                        Smoothing algorithm: York/Karplus (Gamma=1.0000).
                        Polarization charges: spherical gaussians, with
                                              point-specific exponents (IZeta= 3).
                        Self-potential: point-specific (ISelfS= 7).
                        Self-field    : sphere-specific E.n sum rule (ISelfD= 2).
 1st derivatives      : Analytical E(r).r(x)/FMM algorithm (CHGder, D1EAlg=3).
                        Cavity 1st derivative terms included.
 2nd derivatives      : Analytical E(r).r(xy)/FMM algorithm (CHGder, D2EAlg=3).
                        Cavity 2nd derivative terms included.
 Solvent              : Water, Eps=  78.355300 Eps(inf)=   1.777849
 ------------------------------------------------------------------------------
 GePol: Number of generator spheres                  =      29
 GePol: Total number of spheres                      =      29
 GePol: Number of exposed spheres                    =      29 (100.00%)
 GePol: Number of points                             =    2418
 GePol: Average weight of points                     =       0.13
 GePol: Minimum weight of points                     =   0.85D-11
 GePol: Maximum weight of points                     =    0.20577
 GePol: Number of points with low weight             =     137
 GePol: Fraction of low-weight points (<1% of avg)   =       5.67%
 GePol: Cavity surface area                          =    305.135 Ang**2
 GePol: Cavity volume                                =    324.058 Ang**3
 Leave Link  301 at Thu Aug 29 01:33:27 2024, MaxMem=  8589934592 cpu:               0.7 elap:               0.0
 (Enter /share/apps/g16.b01_avx2/g16/l302.exe)
 NPDir=0 NMtPBC=     1 NCelOv=     1 NCel=       1 NClECP=     1 NCelD=      1
         NCelK=      1 NCelE2=     1 NClLst=     1 CellRange=     0.0.
 One-electron integrals computed using PRISM.
 One-electron integral symmetry used in STVInt
   1 Symmetry operations used in ECPInt.
 ECPInt:  NShTT=   31125 NPrTT=   97468 LenC2=   26942 LenP2D=   59675.
 LDataN:  DoStor=T MaxTD1= 6 Len=  172
 NBasis=   649 RedAO= T EigKep=  1.45D-05  NBF=   649
 NBsUse=   649 1.00D-06 EigRej= -1.00D+00 NBFU=   649
 Precomputing XC quadrature grid using
 IXCGrd= 4 IRadAn=       99590 IRanWt=          -1 IRanGd=           0 AccXCQ= 0.00D+00.
 Generated NRdTot=       0 NPtTot=           0 NUsed=           0 NTot=          32
 NSgBfM=   733   733   733   733   733 MxSgAt=    29 MxSgA2=    29.
 Leave Link  302 at Thu Aug 29 01:33:28 2024, MaxMem=  8589934592 cpu:              11.6 elap:               0.5
 (Enter /share/apps/g16.b01_avx2/g16/l303.exe)
 DipDrv:  MaxL=1.
 Leave Link  303 at Thu Aug 29 01:33:28 2024, MaxMem=  8589934592 cpu:               1.4 elap:               0.1
 (Enter /share/apps/g16.b01_avx2/g16/l401.exe)
 ExpMin= 9.52D-02 ExpMax= 3.55D+04 ExpMxC= 1.21D+03 IAcc=4 IRadAn=    199590 AccDes= 0.00D+00
 Harris functional with IExCor= 1009 and IRadAn=  199590 diagonalized for initial guess.
 HarFok:  IExCor= 1009 AccDes= 0.00D+00 IRadAn=    199590 IDoV= 1 UseB2=F ITyADJ=14
 ICtDFT=  3500011 ScaDFX=  1.000000  1.000000  1.000000  1.000000
 FoFCou: FMM=F IPFlag=           0 FMFlag=      100000 FMFlg1=           0
         NFxFlg=           0 DoJE=T BraDBF=F KetDBF=T FulRan=T
         wScrn=  0.000000 ICntrl=       500 IOpCl=  0 I1Cent=   200000004 NGrid=           0
         NMat0=    1 NMatS0=      1 NMatT0=    0 NMatD0=    1 NMtDS0=    0 NMtDT0=    0
 Petite list used in FoFCou.
 Harris En= -1166.01904261196    
 JPrj=0 DoOrth=F DoCkMO=F.
 Leave Link  401 at Thu Aug 29 01:33:31 2024, MaxMem=  8589934592 cpu:              77.6 elap:               3.2
 (Enter /share/apps/g16.b01_avx2/g16/l502.exe)
 Integral symmetry usage will be decided dynamically.
 Closed shell SCF:
 Using DIIS extrapolation, IDIIS=  1040.
 NGot=  8589934592 LenX=  8588803237 LenY=  8588248957
 Requested convergence on RMS density matrix=1.00D-08 within 128 cycles.
 Requested convergence on MAX density matrix=1.00D-06.
 Requested convergence on             energy=1.00D-06.
 No special actions if energy rises.
 Fock matrices will be formed incrementally for  20 cycles.

 Cycle   1  Pass 1  IDiag  1:
 FoFJK:  IHMeth= 1 ICntrl=       0 DoSepK=F KAlg= 0 I1Cent=           0 FoldK=F
 IRaf= 800000000 NMat=       1 IRICut=       1 DoRegI=T DoRafI=F ISym2E= 0 IDoP0=0 IntGTp=1.
 FoFCou: FMM=F IPFlag=           0 FMFlag=      100000 FMFlg1=           0
         NFxFlg=           0 DoJE=F BraDBF=F KetDBF=F FulRan=T
         wScrn=  0.000000 ICntrl=         0 IOpCl=  0 I1Cent=           0 NGrid=           0
         NMat0=    1 NMatS0=      1 NMatT0=    0 NMatD0=    1 NMtDS0=    0 NMtDT0=    0
 Symmetry not used in FoFCou.
 Inv3:  Mode=1 IEnd=    17540172.
 Iteration    1 A*A^-1 deviation from unit magnitude is 3.11D-15 for    633.
 Iteration    1 A*A^-1 deviation from orthogonality  is 2.01D-15 for   1451   1053.
 Iteration    1 A^-1*A deviation from unit magnitude is 3.33D-15 for   1707.
 Iteration    1 A^-1*A deviation from orthogonality  is 1.79D-15 for   2080    182.
 E= -1165.64495850987    
 DIIS: error= 1.64D-02 at cycle   1 NSaved=   1.
 NSaved= 1 IEnMin= 1 EnMin= -1165.64495850987     IErMin= 1 ErrMin= 1.64D-02
 ErrMax= 1.64D-02  0.00D+00 EMaxC= 1.00D-01 BMatC= 3.83D-01 BMatP= 3.83D-01
 IDIUse=3 WtCom= 8.36D-01 WtEn= 1.64D-01
 Coeff-Com:  0.100D+01
 Coeff-En:   0.100D+01
 Coeff:      0.100D+01
 Gap=     0.261 Goal=   None    Shift=    0.000
 GapD=    0.261 DampG=1.000 DampE=0.500 DampFc=0.5000 IDamp=-1.
 Damping current iteration by 5.00D-01
 RMSDP=2.80D-03 MaxDP=3.73D-01              OVMax= 2.58D-01

 Cycle   2  Pass 1  IDiag  1:
 RMSU=  1.40D-03    CP:  1.01D+00
 E= -1165.74876910943     Delta-E=       -0.103810599557 Rises=F Damp=T
 DIIS: error= 4.20D-03 at cycle   2 NSaved=   2.
 NSaved= 2 IEnMin= 2 EnMin= -1165.74876910943     IErMin= 2 ErrMin= 4.20D-03
 ErrMax= 4.20D-03  0.00D+00 EMaxC= 1.00D-01 BMatC= 4.40D-02 BMatP= 3.83D-01
 IDIUse=3 WtCom= 9.58D-01 WtEn= 4.20D-02
 Coeff-Com:  0.851D-01 0.915D+00
 Coeff-En:   0.189D+00 0.811D+00
 Coeff:      0.895D-01 0.911D+00
 Gap=     0.294 Goal=   None    Shift=    0.000
 RMSDP=9.57D-04 MaxDP=1.41D-01 DE=-1.04D-01 OVMax= 1.60D-01

 Cycle   3  Pass 1  IDiag  1:
 RMSU=  6.47D-04    CP:  9.89D-01  5.03D-01
 E= -1165.88301533505     Delta-E=       -0.134246225618 Rises=F Damp=F
 DIIS: error= 4.98D-03 at cycle   3 NSaved=   3.
 NSaved= 3 IEnMin= 3 EnMin= -1165.88301533505     IErMin= 2 ErrMin= 4.20D-03
 ErrMax= 4.98D-03  0.00D+00 EMaxC= 1.00D-01 BMatC= 4.30D-02 BMatP= 4.40D-02
 IDIUse=3 WtCom= 9.50D-01 WtEn= 4.98D-02
 Coeff-Com: -0.544D-01 0.512D+00 0.542D+00
 Coeff-En:   0.000D+00 0.000D+00 0.100D+01
 Coeff:     -0.517D-01 0.487D+00 0.565D+00
 Gap=     0.248 Goal=   None    Shift=    0.000
 RMSDP=3.33D-04 MaxDP=2.62D-02 DE=-1.34D-01 OVMax= 5.40D-02

 Cycle   4  Pass 1  IDiag  1:
 RMSU=  2.88D-04    CP:  9.88D-01  5.72D-01  7.89D-01
 E= -1165.90991702917     Delta-E=       -0.026901694128 Rises=F Damp=F
 DIIS: error= 2.10D-03 at cycle   4 NSaved=   4.
 NSaved= 4 IEnMin= 4 EnMin= -1165.90991702917     IErMin= 4 ErrMin= 2.10D-03
 ErrMax= 2.10D-03  0.00D+00 EMaxC= 1.00D-01 BMatC= 4.80D-03 BMatP= 4.30D-02
 IDIUse=3 WtCom= 9.79D-01 WtEn= 2.10D-02
 Coeff-Com: -0.382D-01 0.135D+00 0.295D+00 0.609D+00
 Coeff-En:   0.000D+00 0.000D+00 0.787D-01 0.921D+00
 Coeff:     -0.374D-01 0.132D+00 0.290D+00 0.615D+00
 Gap=     0.246 Goal=   None    Shift=    0.000
 RMSDP=1.16D-04 MaxDP=6.93D-03 DE=-2.69D-02 OVMax= 1.51D-02

 Cycle   5  Pass 1  IDiag  1:
 RMSU=  6.39D-05    CP:  9.88D-01  5.85D-01  8.75D-01  7.35D-01
 E= -1165.91335039079     Delta-E=       -0.003433361614 Rises=F Damp=F
 DIIS: error= 4.39D-04 at cycle   5 NSaved=   5.
 NSaved= 5 IEnMin= 5 EnMin= -1165.91335039079     IErMin= 5 ErrMin= 4.39D-04
 ErrMax= 4.39D-04  0.00D+00 EMaxC= 1.00D-01 BMatC= 4.23D-04 BMatP= 4.80D-03
 IDIUse=3 WtCom= 9.96D-01 WtEn= 4.39D-03
 Coeff-Com: -0.166D-01 0.410D-01 0.114D+00 0.331D+00 0.530D+00
 Coeff-En:   0.000D+00 0.000D+00 0.000D+00 0.000D+00 0.100D+01
 Coeff:     -0.165D-01 0.408D-01 0.114D+00 0.330D+00 0.532D+00
 Gap=     0.247 Goal=   None    Shift=    0.000
 RMSDP=3.52D-05 MaxDP=2.63D-03 DE=-3.43D-03 OVMax= 4.96D-03

 Cycle   6  Pass 1  IDiag  1:
 RMSU=  1.80D-05    CP:  9.88D-01  5.83D-01  8.60D-01  7.71D-01  5.85D-01
 E= -1165.91365296474     Delta-E=       -0.000302573949 Rises=F Damp=F
 DIIS: error= 1.23D-04 at cycle   6 NSaved=   6.
 NSaved= 6 IEnMin= 6 EnMin= -1165.91365296474     IErMin= 6 ErrMin= 1.23D-04
 ErrMax= 1.23D-04  0.00D+00 EMaxC= 1.00D-01 BMatC= 2.85D-05 BMatP= 4.23D-04
 IDIUse=3 WtCom= 9.99D-01 WtEn= 1.23D-03
 Coeff-Com: -0.580D-02 0.105D-01 0.334D-01 0.120D+00 0.275D+00 0.567D+00
 Coeff-En:   0.000D+00 0.000D+00 0.000D+00 0.000D+00 0.000D+00 0.100D+01
 Coeff:     -0.579D-02 0.105D-01 0.334D-01 0.120D+00 0.275D+00 0.567D+00
 Gap=     0.247 Goal=   None    Shift=    0.000
 RMSDP=8.84D-06 MaxDP=6.70D-04 DE=-3.03D-04 OVMax= 1.26D-03

 Cycle   7  Pass 1  IDiag  1:
 RMSU=  6.07D-06    CP:  9.88D-01  5.84D-01  8.61D-01  7.60D-01  6.21D-01
                    CP:  7.49D-01
 E= -1165.91367358375     Delta-E=       -0.000020619008 Rises=F Damp=F
 DIIS: error= 2.99D-05 at cycle   7 NSaved=   7.
 NSaved= 7 IEnMin= 7 EnMin= -1165.91367358375     IErMin= 7 ErrMin= 2.99D-05
 ErrMax= 2.99D-05  0.00D+00 EMaxC= 1.00D-01 BMatC= 1.65D-06 BMatP= 2.85D-05
 IDIUse=1 WtCom= 1.00D+00 WtEn= 0.00D+00
 Coeff-Com: -0.145D-02 0.186D-02 0.643D-02 0.303D-01 0.874D-01 0.258D+00
 Coeff-Com:  0.617D+00
 Coeff:     -0.145D-02 0.186D-02 0.643D-02 0.303D-01 0.874D-01 0.258D+00
 Coeff:      0.617D+00
 Gap=     0.247 Goal=   None    Shift=    0.000
 RMSDP=2.70D-06 MaxDP=2.76D-04 DE=-2.06D-05 OVMax= 2.41D-04

 Cycle   8  Pass 1  IDiag  1:
 RMSU=  1.46D-06    CP:  9.88D-01  5.84D-01  8.61D-01  7.65D-01  6.22D-01
                    CP:  7.96D-01  8.22D-01
 E= -1165.91367466220     Delta-E=       -0.000001078452 Rises=F Damp=F
 DIIS: error= 1.21D-05 at cycle   8 NSaved=   8.
 NSaved= 8 IEnMin= 8 EnMin= -1165.91367466220     IErMin= 8 ErrMin= 1.21D-05
 ErrMax= 1.21D-05  0.00D+00 EMaxC= 1.00D-01 BMatC= 2.15D-07 BMatP= 1.65D-06
 IDIUse=1 WtCom= 1.00D+00 WtEn= 0.00D+00
 Coeff-Com: -0.134D-03-0.340D-04-0.264D-03 0.227D-02 0.137D-01 0.632D-01
 Coeff-Com:  0.307D+00 0.614D+00
 Coeff:     -0.134D-03-0.340D-04-0.264D-03 0.227D-02 0.137D-01 0.632D-01
 Coeff:      0.307D+00 0.614D+00
 Gap=     0.247 Goal=   None    Shift=    0.000
 RMSDP=6.94D-07 MaxDP=5.75D-05 DE=-1.08D-06 OVMax= 1.11D-04

 Cycle   9  Pass 1  IDiag  1:
 RMSU=  4.69D-07    CP:  9.88D-01  5.84D-01  8.61D-01  7.64D-01  6.24D-01
                    CP:  8.03D-01  8.62D-01  7.89D-01
 E= -1165.91367482716     Delta-E=       -0.000000164962 Rises=F Damp=F
 DIIS: error= 3.85D-06 at cycle   9 NSaved=   9.
 NSaved= 9 IEnMin= 9 EnMin= -1165.91367482716     IErMin= 9 ErrMin= 3.85D-06
 ErrMax= 3.85D-06  0.00D+00 EMaxC= 1.00D-01 BMatC= 1.74D-08 BMatP= 2.15D-07
 IDIUse=1 WtCom= 1.00D+00 WtEn= 0.00D+00
 Coeff-Com:  0.762D-04-0.199D-03-0.768D-03-0.198D-02-0.274D-02 0.581D-03
 Coeff-Com:  0.685D-01 0.283D+00 0.654D+00
 Coeff:      0.762D-04-0.199D-03-0.768D-03-0.198D-02-0.274D-02 0.581D-03
 Coeff:      0.685D-01 0.283D+00 0.654D+00
 Gap=     0.247 Goal=   None    Shift=    0.000
 RMSDP=2.18D-07 MaxDP=1.10D-05 DE=-1.65D-07 OVMax= 2.44D-05

 Cycle  10  Pass 1  IDiag  1:
 RMSU=  1.03D-07    CP:  9.88D-01  5.84D-01  8.61D-01  7.64D-01  6.23D-01
                    CP:  8.06D-01  8.78D-01  8.50D-01  8.01D-01
 E= -1165.91367484205     Delta-E=       -0.000000014886 Rises=F Damp=F
 DIIS: error= 4.57D-07 at cycle  10 NSaved=  10.
 NSaved=10 IEnMin=10 EnMin= -1165.91367484205     IErMin=10 ErrMin= 4.57D-07
 ErrMax= 4.57D-07  0.00D+00 EMaxC= 1.00D-01 BMatC= 3.52D-10 BMatP= 1.74D-08
 IDIUse=1 WtCom= 1.00D+00 WtEn= 0.00D+00
 Coeff-Com:  0.231D-04-0.544D-04-0.234D-03-0.632D-03-0.115D-02-0.146D-02
 Coeff-Com:  0.133D-01 0.735D-01 0.207D+00 0.710D+00
 Coeff:      0.231D-04-0.544D-04-0.234D-03-0.632D-03-0.115D-02-0.146D-02
 Coeff:      0.133D-01 0.735D-01 0.207D+00 0.710D+00
 Gap=     0.247 Goal=   None    Shift=    0.000
 RMSDP=4.19D-08 MaxDP=2.13D-06 DE=-1.49D-08 OVMax= 9.19D-06

 Cycle  11  Pass 1  IDiag  1:
 RMSU=  3.50D-08    CP:  9.88D-01  5.84D-01  8.61D-01  7.64D-01  6.23D-01
                    CP:  8.06D-01  8.80D-01  8.53D-01  8.16D-01  8.82D-01
 E= -1165.91367484227     Delta-E=       -0.000000000229 Rises=F Damp=F
 DIIS: error= 2.87D-07 at cycle  11 NSaved=  11.
 NSaved=11 IEnMin=11 EnMin= -1165.91367484227     IErMin=11 ErrMin= 2.87D-07
 ErrMax= 2.87D-07  0.00D+00 EMaxC= 1.00D-01 BMatC= 1.21D-10 BMatP= 3.52D-10
 IDIUse=1 WtCom= 1.00D+00 WtEn= 0.00D+00
 Coeff-Com:  0.422D-05-0.664D-05-0.481D-04-0.132D-03-0.379D-03-0.972D-03
 Coeff-Com: -0.162D-02 0.473D-02 0.303D-01 0.383D+00 0.585D+00
 Coeff:      0.422D-05-0.664D-05-0.481D-04-0.132D-03-0.379D-03-0.972D-03
 Coeff:     -0.162D-02 0.473D-02 0.303D-01 0.383D+00 0.585D+00
 Gap=     0.247 Goal=   None    Shift=    0.000
 RMSDP=1.80D-08 MaxDP=1.17D-06 DE=-2.29D-10 OVMax= 2.97D-06

 Cycle  12  Pass 1  IDiag  1:
 RMSU=  1.08D-08    CP:  9.88D-01  5.84D-01  8.61D-01  7.64D-01  6.23D-01
                    CP:  8.06D-01  8.80D-01  8.56D-01  8.21D-01  9.45D-01
                    CP:  7.48D-01
 E= -1165.91367484238     Delta-E=       -0.000000000107 Rises=F Damp=F
 DIIS: error= 5.90D-08 at cycle  12 NSaved=  12.
 NSaved=12 IEnMin=12 EnMin= -1165.91367484238     IErMin=12 ErrMin= 5.90D-08
 ErrMax= 5.90D-08  0.00D+00 EMaxC= 1.00D-01 BMatC= 7.86D-12 BMatP= 1.21D-10
 IDIUse=1 WtCom= 1.00D+00 WtEn= 0.00D+00
 Coeff-Com: -0.525D-06 0.262D-05-0.179D-05 0.208D-05-0.659D-04-0.237D-03
 Coeff-Com: -0.188D-02-0.459D-02-0.603D-02 0.107D+00 0.257D+00 0.649D+00
 Coeff:     -0.525D-06 0.262D-05-0.179D-05 0.208D-05-0.659D-04-0.237D-03
 Coeff:     -0.188D-02-0.459D-02-0.603D-02 0.107D+00 0.257D+00 0.649D+00
 Gap=     0.247 Goal=   None    Shift=    0.000
 RMSDP=6.11D-09 MaxDP=5.66D-07 DE=-1.07D-10 OVMax= 9.53D-07

 Error on total polarization charges =  0.01039
 SCF Done:  E(RPBE1PBE) =  -1165.91367484     A.U. after   12 cycles
            NFock= 12  Conv=0.61D-08     -V/T= 2.0038
 KE= 1.161517495934D+03 PE=-5.982229574588D+03 EE= 2.039377594496D+03
 Leave Link  502 at Thu Aug 29 01:35:09 2024, MaxMem=  8589934592 cpu:            2334.1 elap:              97.8
 (Enter /share/apps/g16.b01_avx2/g16/l801.exe)
 DoSCS=F DFT=T ScalE2(SS,OS)=  1.000000  1.000000
 Range of M.O.s used for correlation:     1   649
 NBasis=   649 NAE=    73 NBE=    73 NFC=     0 NFV=     0
 NROrb=    649 NOA=    73 NOB=    73 NVA=   576 NVB=   576

 **** Warning!!: The largest alpha MO coefficient is  0.52118400D+02

 Leave Link  801 at Thu Aug 29 01:35:09 2024, MaxMem=  8589934592 cpu:               0.4 elap:               0.0
 (Enter /share/apps/g16.b01_avx2/g16/l1101.exe)
 Using compressed storage, NAtomX=    29.
 Will process     30 centers per pass.
   1 Symmetry operations used in ECPInt.
 ECPInt:  NShTT=   31125 NPrTT=   97468 LenC2=   26942 LenP2D=   59675.
 LDataN:  DoStor=T MaxTD1= 7 Len=  274
 Number of processors reduced to  18 by ecpmxn.
 R6Disp: Adding Grimme-D3 dispersion energy 1st derivatives to the gradient.
 Leave Link 1101 at Thu Aug 29 01:35:10 2024, MaxMem=  8589934592 cpu:              30.1 elap:               1.3
 (Enter /share/apps/g16.b01_avx2/g16/l1102.exe)
 Symmetrizing basis deriv contribution to polar:
 IMax=3 JMax=2 DiffMx= 0.00D+00
 Leave Link 1102 at Thu Aug 29 01:35:10 2024, MaxMem=  8589934592 cpu:               1.1 elap:               0.1
 (Enter /share/apps/g16.b01_avx2/g16/l1110.exe)
 Forming Gx(P) for the SCF density, NAtomX=    29.
 Integral derivatives from FoFJK, PRISM(SPDF).
 Do as many integral derivatives as possible in FoFJK.
 G2DrvN: MDV=    8589932136.
 G2DrvN: will do    30 centers at a time, making    1 passes.
 Calling FoFCou, ICntrl=  3107 FMM=F I1Cent=   0 AccDes= 0.00D+00.
 FoFJK:  IHMeth= 1 ICntrl=    3107 DoSepK=F KAlg= 0 I1Cent=           0 FoldK=F
 IRaf=         0 NMat=       1 IRICut=       1 DoRegI=T DoRafI=F ISym2E= 0 IDoP0=0 IntGTp=1.
 FoFCou: FMM=F IPFlag=           0 FMFlag=      100000 FMFlg1=           0
         NFxFlg=           0 DoJE=F BraDBF=F KetDBF=F FulRan=T
         wScrn=  0.000000 ICntrl=      3107 IOpCl=  0 I1Cent=           0 NGrid=           0
         NMat0=    1 NMatS0=      1 NMatT0=    0 NMatD0=    1 NMtDS0=    0 NMtDT0=    0
 Symmetry not used in FoFCou.
 NEqPCM:  Using equilibrium solvation (IEInf=0, Eps=  78.3553, EpsInf=   1.7778)
 G2PCM: DoFxE=T DoFxN=T DoGrad=T DoDP/DQ/DG/TGxP=FFFF NFrqRd=   0 IEInf=0 SqF1=F DoCFld=F IF1Alg=4.
 GePol: Maximum number of non-zero 1st derivatives   =     231
 End of G2Drv F.D. properties file   721 does not exist.
 End of G2Drv F.D. properties file   722 does not exist.
 End of G2Drv F.D. properties file   788 does not exist.
 Leave Link 1110 at Thu Aug 29 01:38:21 2024, MaxMem=  8589934592 cpu:            4569.3 elap:             190.6
 (Enter /share/apps/g16.b01_avx2/g16/l1002.exe)
 Minotr:  Closed shell wavefunction.
          IDoAtm=11111111111111111111111111111
 NEqPCM:  Using equilibrium solvation (IEInf=0, Eps=  78.3553, EpsInf=   1.7778)
          Direct CPHF calculation.
          Differentiating once with respect to nuclear coordinates.
          Requested convergence is 1.0D-08 RMS, and 1.0D-07 maximum.
          Secondary convergence is 1.0D-12 RMS, and 1.0D-12 maximum.
          NewPWx=T KeepS1=F KeepF1=F KeepIn=T MapXYZ=F SortEE=F KeepMc=T.
        20214 words used for storage of precomputed grid.
 Two-electron integrals replicated using symmetry.
          MDV=    8589934592 using IRadAn=   99302.
          Solving linear equations simultaneously, MaxMat=     384.
 FoF2E skips out because all densities are zero.
 CalDSu exits because no D1Ps are significant.
 FoFJK:  IHMeth= 1 ICntrl=       0 DoSepK=F KAlg= 0 I1Cent=           0 FoldK=F
 IRaf= 770000000 NMat=      87 IRICut=     217 DoRegI=T DoRafI=T ISym2E= 2 IDoP0=3 IntGTp=3.
          There are    90 degrees of freedom in the 1st order CPHF.  IDoFFX=6 NUNeed=     0.
     84 vectors produced by pass  0 Test12= 4.67D-14 1.11D-09 XBig12= 1.41D-01 1.72D-01.
 AX will form    84 AO Fock derivatives at one time.
     84 vectors produced by pass  1 Test12= 4.67D-14 1.11D-09 XBig12= 2.62D-02 3.46D-02.
     84 vectors produced by pass  2 Test12= 4.67D-14 1.11D-09 XBig12= 6.38D-04 2.90D-03.
     84 vectors produced by pass  3 Test12= 4.67D-14 1.11D-09 XBig12= 5.96D-06 3.22D-04.
     84 vectors produced by pass  4 Test12= 4.67D-14 1.11D-09 XBig12= 1.89D-08 1.62D-05.
     83 vectors produced by pass  5 Test12= 4.67D-14 1.11D-09 XBig12= 4.88D-11 5.89D-07.
     49 vectors produced by pass  6 Test12= 4.67D-14 1.11D-09 XBig12= 1.20D-13 2.41D-08.
      4 vectors produced by pass  7 Test12= 4.67D-14 1.11D-09 XBig12= 5.65D-16 2.61D-09.
      4 vectors produced by pass  8 Test12= 4.67D-14 1.11D-09 XBig12= 7.13D-16 2.83D-09.
      4 vectors produced by pass  9 Test12= 4.67D-14 1.11D-09 XBig12= 6.10D-15 8.27D-09.
      4 vectors produced by pass 10 Test12= 4.67D-14 1.11D-09 XBig12= 3.45D-15 4.91D-09.
      4 vectors produced by pass 11 Test12= 4.67D-14 1.11D-09 XBig12= 2.15D-15 4.84D-09.
      4 vectors produced by pass 12 Test12= 4.67D-14 1.11D-09 XBig12= 2.66D-15 5.34D-09.
      4 vectors produced by pass 13 Test12= 4.67D-14 1.11D-09 XBig12= 2.90D-15 6.67D-09.
      3 vectors produced by pass 14 Test12= 4.67D-14 1.11D-09 XBig12= 8.35D-16 3.18D-09.
      3 vectors produced by pass 15 Test12= 4.67D-14 1.11D-09 XBig12= 1.90D-15 3.64D-09.
      3 vectors produced by pass 16 Test12= 4.67D-14 1.11D-09 XBig12= 4.14D-15 6.83D-09.
      3 vectors produced by pass 17 Test12= 4.67D-14 1.11D-09 XBig12= 1.69D-15 3.30D-09.
      3 vectors produced by pass 18 Test12= 4.67D-14 1.11D-09 XBig12= 2.69D-15 4.34D-09.
      3 vectors produced by pass 19 Test12= 4.67D-14 1.11D-09 XBig12= 2.40D-15 4.14D-09.
      3 vectors produced by pass 20 Test12= 4.67D-14 1.11D-09 XBig12= 2.26D-15 3.55D-09.
      3 vectors produced by pass 21 Test12= 4.67D-14 1.11D-09 XBig12= 1.84D-15 3.55D-09.
      3 vectors produced by pass 22 Test12= 4.67D-14 1.11D-09 XBig12= 1.90D-15 3.13D-09.
      3 vectors produced by pass 23 Test12= 4.67D-14 1.11D-09 XBig12= 1.49D-15 2.86D-09.
      3 vectors produced by pass 24 Test12= 4.67D-14 1.11D-09 XBig12= 1.54D-15 3.04D-09.
      3 vectors produced by pass 25 Test12= 4.67D-14 1.11D-09 XBig12= 1.89D-15 3.67D-09.
      3 vectors produced by pass 26 Test12= 4.67D-14 1.11D-09 XBig12= 1.95D-15 3.89D-09.
      3 vectors produced by pass 27 Test12= 4.67D-14 1.11D-09 XBig12= 9.52D-16 2.22D-09.
      3 vectors produced by pass 28 Test12= 4.67D-14 1.11D-09 XBig12= 1.71D-15 2.66D-09.
      3 vectors produced by pass 29 Test12= 4.67D-14 1.11D-09 XBig12= 1.60D-15 3.58D-09.
      3 vectors produced by pass 30 Test12= 4.67D-14 1.11D-09 XBig12= 1.98D-15 3.98D-09.
      3 vectors produced by pass 31 Test12= 4.67D-14 1.11D-09 XBig12= 1.98D-15 3.50D-09.
      3 vectors produced by pass 32 Test12= 4.67D-14 1.11D-09 XBig12= 1.57D-15 2.50D-09.
      3 vectors produced by pass 33 Test12= 4.67D-14 1.11D-09 XBig12= 1.70D-15 2.84D-09.
      3 vectors produced by pass 34 Test12= 4.67D-14 1.11D-09 XBig12= 2.12D-15 3.70D-09.
      3 vectors produced by pass 35 Test12= 4.67D-14 1.11D-09 XBig12= 1.39D-15 2.42D-09.
      3 vectors produced by pass 36 Test12= 4.67D-14 1.11D-09 XBig12= 1.25D-15 2.74D-09.
      3 vectors produced by pass 37 Test12= 4.67D-14 1.11D-09 XBig12= 1.51D-15 3.11D-09.
      3 vectors produced by pass 38 Test12= 4.67D-14 1.11D-09 XBig12= 2.03D-15 3.36D-09.
      3 vectors produced by pass 39 Test12= 4.67D-14 1.11D-09 XBig12= 1.21D-15 2.89D-09.
      3 vectors produced by pass 40 Test12= 4.67D-14 1.11D-09 XBig12= 2.62D-15 3.49D-09.
      2 vectors produced by pass 41 Test12= 4.67D-14 1.11D-09 XBig12= 1.18D-15 2.32D-09.
 InvSVY:  IOpt=1 It=  1 EMax= 3.89D-16
 Solved reduced A of dimension   663 with    90 vectors.
 End of Minotr F.D. properties file   721 does not exist.
 End of Minotr F.D. properties file   722 does not exist.
 End of Minotr F.D. properties file   788 does not exist.
 Leave Link 1002 at Thu Aug 29 01:52:04 2024, MaxMem=  8589934592 cpu:           19738.6 elap:             823.0
 (Enter /share/apps/g16.b01_avx2/g16/l601.exe)
 Copying SCF densities to generalized density rwf, IOpCl= 0 IROHF=0.

 **********************************************************************

            Population analysis using the SCF Density.

 **********************************************************************

 Orbital symmetries:
       Occupied  (A) (A) (A) (A) (A) (A) (A) (A) (A) (A) (A) (A)
                 (A) (A) (A) (A) (A) (A) (A) (A) (A) (A) (A) (A)
                 (A) (A) (A) (A) (A) (A) (A) (A) (A) (A) (A) (A)
                 (A) (A) (A) (A) (A) (A) (A) (A) (A) (A) (A) (A)
                 (A) (A) (A) (A) (A) (A) (A) (A) (A) (A) (A) (A)
                 (A) (A) (A) (A) (A) (A) (A) (A) (A) (A) (A) (A)
                 (A)
       Virtual   (A) (A) (A) (A) (A) (A) (A) (A) (A) (A) (A) (A)
                 (A) (A) (A) (A) (A) (A) (A) (A) (A) (A) (A) (A)
                 (A) (A) (A) (A) (A) (A) (A) (A) (A) (A) (A) (A)
                 (A) (A) (A) (A) (A) (A) (A) (A) (A) (A) (A) (A)
                 (A) (A) (A) (A) (A) (A) (A) (A) (A) (A) (A) (A)
                 (A) (A) (A) (A) (A) (A) (A) (A) (A) (A) (A) (A)
                 (A) (A) (A) (A) (A) (A) (A) (A) (A) (A) (A) (A)
                 (A) (A) (A) (A) (A) (A) (A) (A) (A) (A) (A) (A)
                 (A) (A) (A) (A) (A) (A) (A) (A) (A) (A) (A) (A)
                 (A) (A) (A) (A) (A) (A) (A) (A) (A) (A) (A) (A)
                 (A) (A) (A) (A) (A) (A) (A) (A) (A) (A) (A) (A)
                 (A) (A) (A) (A) (A) (A) (A) (A) (A) (A) (A) (A)
                 (A) (A) (A) (A) (A) (A) (A) (A) (A) (A) (A) (A)
                 (A) (A) (A) (A) (A) (A) (A) (A) (A) (A) (A) (A)
                 (A) (A) (A) (A) (A) (A) (A) (A) (A) (A) (A) (A)
                 (A) (A) (A) (A) (A) (A) (A) (A) (A) (A) (A) (A)
                 (A) (A) (A) (A) (A) (A) (A) (A) (A) (A) (A) (A)
                 (A) (A) (A) (A) (A) (A) (A) (A) (A) (A) (A) (A)
                 (A) (A) (A) (A) (A) (A) (A) (A) (A) (A) (A) (A)
                 (A) (A) (A) (A) (A) (A) (A) (A) (A) (A) (A) (A)
                 (A) (A) (A) (A) (A) (A) (A) (A) (A) (A) (A) (A)
                 (A) (A) (A) (A) (A) (A) (A) (A) (A) (A) (A) (A)
                 (A) (A) (A) (A) (A) (A) (A) (A) (A) (A) (A) (A)
                 (A) (A) (A) (A) (A) (A) (A) (A) (A) (A) (A) (A)
                 (A) (A) (A) (A) (A) (A) (A) (A) (A) (A) (A) (A)
                 (A) (A) (A) (A) (A) (A) (A) (A) (A) (A) (A) (A)
                 (A) (A) (A) (A) (A) (A) (A) (A) (A) (A) (A) (A)
                 (A) (A) (A) (A) (A) (A) (A) (A) (A) (A) (A) (A)
                 (A) (A) (A) (A) (A) (A) (A) (A) (A) (A) (A) (A)
                 (A) (A) (A) (A) (A) (A) (A) (A) (A) (A) (A) (A)
                 (A) (A) (A) (A) (A) (A) (A) (A) (A) (A) (A) (A)
                 (A) (A) (A) (A) (A) (A) (A) (A) (A) (A) (A) (A)
                 (A) (A) (A) (A) (A) (A) (A) (A) (A) (A) (A) (A)
                 (A) (A) (A) (A) (A) (A) (A) (A) (A) (A) (A) (A)
                 (A) (A) (A) (A) (A) (A) (A) (A) (A) (A) (A) (A)
                 (A) (A) (A) (A) (A) (A) (A) (A) (A) (A) (A) (A)
                 (A) (A) (A) (A) (A) (A) (A) (A) (A) (A) (A) (A)
                 (A) (A) (A) (A) (A) (A) (A) (A) (A) (A) (A) (A)
                 (A) (A) (A) (A) (A) (A) (A) (A) (A) (A) (A) (A)
                 (A) (A) (A) (A) (A) (A) (A) (A) (A) (A) (A) (A)
                 (A) (A) (A) (A) (A) (A) (A) (A) (A) (A) (A) (A)
                 (A) (A) (A) (A) (A) (A) (A) (A) (A) (A) (A) (A)
                 (A) (A) (A) (A) (A) (A) (A) (A) (A) (A) (A) (A)
                 (A) (A) (A) (A) (A) (A) (A) (A) (A) (A) (A) (A)
                 (A) (A) (A) (A) (A) (A) (A) (A) (A) (A) (A) (A)
                 (A) (A) (A) (A) (A) (A) (A) (A) (A) (A) (A) (A)
                 (A) (A) (A) (A) (A) (A) (A) (A) (A) (A) (A) (A)
                 (A) (A) (A) (A) (A) (A) (A) (A) (A) (A) (A) (A)
 The electronic state is 1-A.
 Alpha  occ. eigenvalues --  -24.81692 -24.81575 -24.81563 -24.81472 -24.80662
 Alpha  occ. eigenvalues --  -19.24066 -19.21601 -19.15949 -14.45185 -10.36438
 Alpha  occ. eigenvalues --  -10.34218 -10.34031 -10.33932 -10.33673 -10.33474
 Alpha  occ. eigenvalues --  -10.31134 -10.27284 -10.25975 -10.25302  -1.30876
 Alpha  occ. eigenvalues --   -1.30178  -1.29497  -1.28748  -1.28317  -1.12121
 Alpha  occ. eigenvalues --   -1.06395  -1.03560  -0.97424  -0.92679  -0.81028
 Alpha  occ. eigenvalues --   -0.80839  -0.77117  -0.72623  -0.70096  -0.69493
 Alpha  occ. eigenvalues --   -0.68205  -0.63330  -0.62502  -0.61924  -0.59195
 Alpha  occ. eigenvalues --   -0.57467  -0.57185  -0.56676  -0.55594  -0.55272
 Alpha  occ. eigenvalues --   -0.54293  -0.52652  -0.52095  -0.51672  -0.49909
 Alpha  occ. eigenvalues --   -0.49823  -0.49523  -0.49120  -0.48079  -0.47370
 Alpha  occ. eigenvalues --   -0.47264  -0.46883  -0.44779  -0.44363  -0.43263
 Alpha  occ. eigenvalues --   -0.41949  -0.41566  -0.41417  -0.40310  -0.39923
 Alpha  occ. eigenvalues --   -0.36989  -0.34900  -0.33124  -0.29884  -0.28028
 Alpha  occ. eigenvalues --   -0.27246  -0.27091  -0.26588
 Alpha virt. eigenvalues --   -0.01935  -0.01244  -0.01030   0.03719   0.04843
 Alpha virt. eigenvalues --    0.06780   0.07826   0.08054   0.08753   0.09913
 Alpha virt. eigenvalues --    0.10992   0.12008   0.12210   0.12369   0.13282
 Alpha virt. eigenvalues --    0.13648   0.14567   0.15536   0.16250   0.17228
 Alpha virt. eigenvalues --    0.17889   0.18723   0.19250   0.19641   0.19987
 Alpha virt. eigenvalues --    0.20616   0.20952   0.21225   0.22058   0.23656
 Alpha virt. eigenvalues --    0.23933   0.24829   0.25811   0.26708   0.27156
 Alpha virt. eigenvalues --    0.28078   0.28965   0.29548   0.29960   0.30583
 Alpha virt. eigenvalues --    0.31005   0.31512   0.32226   0.32954   0.33217
 Alpha virt. eigenvalues --    0.34684   0.35431   0.35702   0.36245   0.37537
 Alpha virt. eigenvalues --    0.38668   0.38966   0.39598   0.40033   0.40696
 Alpha virt. eigenvalues --    0.40847   0.41258   0.41916   0.42703   0.43110
 Alpha virt. eigenvalues --    0.43442   0.43621   0.44049   0.44424   0.45084
 Alpha virt. eigenvalues --    0.45648   0.46700   0.47028   0.47154   0.47701
 Alpha virt. eigenvalues --    0.48190   0.49131   0.49233   0.51299   0.52126
 Alpha virt. eigenvalues --    0.52458   0.53463   0.53929   0.54120   0.55234
 Alpha virt. eigenvalues --    0.55889   0.56846   0.58439   0.58885   0.61594
 Alpha virt. eigenvalues --    0.62303   0.62431   0.62722   0.63832   0.64341
 Alpha virt. eigenvalues --    0.65518   0.66769   0.67599   0.68020   0.69761
 Alpha virt. eigenvalues --    0.70376   0.71259   0.71624   0.73474   0.74019
 Alpha virt. eigenvalues --    0.74568   0.74798   0.76254   0.77359   0.78426
 Alpha virt. eigenvalues --    0.79646   0.80259   0.81317   0.81856   0.82620
 Alpha virt. eigenvalues --    0.83069   0.84560   0.84758   0.85451   0.85790
 Alpha virt. eigenvalues --    0.86948   0.87223   0.88088   0.89508   0.89866
 Alpha virt. eigenvalues --    0.90473   0.92294   0.93696   0.94674   0.95168
 Alpha virt. eigenvalues --    0.95350   0.96556   0.97200   0.98653   0.99843
 Alpha virt. eigenvalues --    1.00287   1.00826   1.01546   1.02594   1.03561
 Alpha virt. eigenvalues --    1.04715   1.05890   1.06785   1.08615   1.08854
 Alpha virt. eigenvalues --    1.10070   1.10228   1.11598   1.12899   1.13697
 Alpha virt. eigenvalues --    1.15317   1.16691   1.17319   1.18133   1.20072
 Alpha virt. eigenvalues --    1.21845   1.22178   1.23759   1.25507   1.27992
 Alpha virt. eigenvalues --    1.28356   1.31093   1.31929   1.33538   1.33890
 Alpha virt. eigenvalues --    1.35448   1.37242   1.38866   1.39580   1.41075
 Alpha virt. eigenvalues --    1.43096   1.44420   1.44926   1.46001   1.46354
 Alpha virt. eigenvalues --    1.47656   1.48130   1.48756   1.50581   1.52540
 Alpha virt. eigenvalues --    1.52981   1.53350   1.54374   1.55062   1.55443
 Alpha virt. eigenvalues --    1.56395   1.57497   1.58300   1.58616   1.61804
 Alpha virt. eigenvalues --    1.62958   1.64143   1.65643   1.66506   1.67189
 Alpha virt. eigenvalues --    1.68351   1.71557   1.72558   1.72937   1.73488
 Alpha virt. eigenvalues --    1.74758   1.75982   1.77796   1.79168   1.80111
 Alpha virt. eigenvalues --    1.80534   1.82499   1.83391   1.84423   1.85643
 Alpha virt. eigenvalues --    1.86739   1.88703   1.90202   1.91734   1.93328
 Alpha virt. eigenvalues --    1.94961   1.95626   1.96188   1.96539   1.97338
 Alpha virt. eigenvalues --    1.98237   1.99310   2.00116   2.01277   2.02637
 Alpha virt. eigenvalues --    2.03874   2.03998   2.05005   2.06426   2.06858
 Alpha virt. eigenvalues --    2.08054   2.08627   2.09454   2.10500   2.10857
 Alpha virt. eigenvalues --    2.13844   2.14483   2.15440   2.16685   2.18513
 Alpha virt. eigenvalues --    2.19580   2.20656   2.21329   2.21835   2.23121
 Alpha virt. eigenvalues --    2.25072   2.26808   2.27618   2.28790   2.30267
 Alpha virt. eigenvalues --    2.31526   2.33058   2.33469   2.33679   2.34369
 Alpha virt. eigenvalues --    2.35537   2.36283   2.36851   2.37829   2.39704
 Alpha virt. eigenvalues --    2.41352   2.44065   2.44915   2.46162   2.48030
 Alpha virt. eigenvalues --    2.48888   2.50047   2.51361   2.52322   2.52845
 Alpha virt. eigenvalues --    2.54540   2.55390   2.56923   2.57371   2.57790
 Alpha virt. eigenvalues --    2.59153   2.59548   2.59952   2.61946   2.62464
 Alpha virt. eigenvalues --    2.63053   2.63266   2.64426   2.65184   2.66583
 Alpha virt. eigenvalues --    2.67267   2.68928   2.70578   2.71944   2.73013
 Alpha virt. eigenvalues --    2.73600   2.76234   2.77537   2.78519   2.79913
 Alpha virt. eigenvalues --    2.80066   2.81020   2.82161   2.82983   2.83070
 Alpha virt. eigenvalues --    2.84751   2.85585   2.86255   2.88373   2.88839
 Alpha virt. eigenvalues --    2.90553   2.90794   2.91915   2.92410   2.93510
 Alpha virt. eigenvalues --    2.93976   2.94654   2.96197   2.97712   2.98665
 Alpha virt. eigenvalues --    2.99626   3.01004   3.02694   3.03082   3.04684
 Alpha virt. eigenvalues --    3.05327   3.06430   3.07746   3.09038   3.10374
 Alpha virt. eigenvalues --    3.10478   3.11458   3.11909   3.12779   3.13528
 Alpha virt. eigenvalues --    3.15014   3.15253   3.16587   3.17808   3.18684
 Alpha virt. eigenvalues --    3.19922   3.20146   3.21288   3.21417   3.21874
 Alpha virt. eigenvalues --    3.23086   3.23589   3.24899   3.25208   3.26068
 Alpha virt. eigenvalues --    3.27754   3.28894   3.30732   3.31141   3.31477
 Alpha virt. eigenvalues --    3.33414   3.34242   3.35709   3.37329   3.37865
 Alpha virt. eigenvalues --    3.39498   3.40858   3.42449   3.42898   3.43829
 Alpha virt. eigenvalues --    3.44246   3.45244   3.45654   3.46302   3.46967
 Alpha virt. eigenvalues --    3.48026   3.49692   3.50241   3.51626   3.52260
 Alpha virt. eigenvalues --    3.53967   3.54288   3.54629   3.55505   3.58135
 Alpha virt. eigenvalues --    3.58684   3.59639   3.60274   3.61652   3.63970
 Alpha virt. eigenvalues --    3.65082   3.67007   3.69640   3.69817   3.71842
 Alpha virt. eigenvalues --    3.72887   3.74353   3.75696   3.78232   3.80530
 Alpha virt. eigenvalues --    3.81798   3.82912   3.85070   3.86222   3.87770
 Alpha virt. eigenvalues --    3.88264   3.88513   3.91482   3.94845   3.97974
 Alpha virt. eigenvalues --    3.99611   4.01711   4.03544   4.05347   4.06499
 Alpha virt. eigenvalues --    4.08186   4.09533   4.10482   4.13332   4.14126
 Alpha virt. eigenvalues --    4.14437   4.16946   4.17415   4.18760   4.21558
 Alpha virt. eigenvalues --    4.21736   4.22946   4.23865   4.26421   4.28385
 Alpha virt. eigenvalues --    4.30394   4.31954   4.35537   4.37102   4.39070
 Alpha virt. eigenvalues --    4.40782   4.41545   4.42873   4.45039   4.45406
 Alpha virt. eigenvalues --    4.47697   4.49768   4.52734   4.54029   4.58584
 Alpha virt. eigenvalues --    4.61719   4.63246   4.67485   4.72087   4.73971
 Alpha virt. eigenvalues --    4.79263   4.80353   4.84635   4.85001   4.86735
 Alpha virt. eigenvalues --    4.87913   4.89674   4.92444   4.92742   4.99211
 Alpha virt. eigenvalues --    5.03087   5.07487   5.09311   5.14780   5.15853
 Alpha virt. eigenvalues --    5.21992   5.25391   5.26658   5.31582   5.36469
 Alpha virt. eigenvalues --    5.37642   5.38686   5.42013   5.44352   5.46082
 Alpha virt. eigenvalues --    5.47902   5.49922   5.54876   5.57497   5.58198
 Alpha virt. eigenvalues --    5.65302   5.69845   5.74648   5.78492   5.80370
 Alpha virt. eigenvalues --    5.84370   5.85746   5.88366   5.95195   6.08010
 Alpha virt. eigenvalues --    6.13347   6.16088   6.25242   6.33231   6.38821
 Alpha virt. eigenvalues --    6.42686   6.49865   6.52945   6.59487   6.72954
 Alpha virt. eigenvalues --    6.74773   6.78252   6.79709   6.84804   6.85111
 Alpha virt. eigenvalues --    6.85429   6.85652   6.85726   6.86200   6.86468
 Alpha virt. eigenvalues --    6.86960   6.87317   6.87389   6.89284   6.91616
 Alpha virt. eigenvalues --    6.94141   6.96454   6.97886   7.01041   7.02201
 Alpha virt. eigenvalues --    7.03130   7.06937   7.07062   7.09896   7.10201
 Alpha virt. eigenvalues --    7.13735   7.14757   7.17244   7.17969   7.20638
 Alpha virt. eigenvalues --    7.22778   7.24464   7.26998   7.29688   7.29709
 Alpha virt. eigenvalues --    7.29847   7.32387   7.36567   7.37549   7.41906
 Alpha virt. eigenvalues --    7.43957   7.47056   7.50890   7.67169   7.67857
 Alpha virt. eigenvalues --    7.75795   8.09339   8.30883   8.33371   8.35906
 Alpha virt. eigenvalues --    8.38028   8.42965   8.43412   8.54112   8.56633
 Alpha virt. eigenvalues --    8.59078   8.69502   8.72980   8.76558   8.77467
 Alpha virt. eigenvalues --    8.80175   8.81048   8.87536   8.89569   8.93117
 Alpha virt. eigenvalues --    8.94598   9.02022   9.03213   9.07603   9.09872
 Alpha virt. eigenvalues --    9.12941   9.40286  22.27844  22.43043  22.46346
 Alpha virt. eigenvalues --   22.63636  22.97593  22.98453  23.10198  23.14017
 Alpha virt. eigenvalues --   23.14893  23.75529  32.22732  44.17352  44.23465
 Alpha virt. eigenvalues --   44.60868  57.20516  57.40222  57.46507  57.53960
 Alpha virt. eigenvalues --   57.65277
          Condensed to atoms (all electrons):
               1          2          3          4          5          6
     1  H    0.425723   0.004540  -0.007495   0.342255  -0.021285  -0.018050
     2  O    0.004540   8.006087   0.690664  -0.090681   0.004083  -0.010789
     3  C   -0.007495   0.690664   4.723287   0.061729  -0.000363  -0.023172
     4  N    0.342255  -0.090681   0.061729   6.410655   0.345838   0.274354
     5  H   -0.021285   0.004083  -0.000363   0.345838   0.418804  -0.022912
     6  C   -0.018050  -0.010789  -0.023172   0.274354  -0.022912   4.900443
     7  H    0.006025   0.000225  -0.007304  -0.028782  -0.006814   0.412260
     8  H   -0.002404   0.019601   0.003588  -0.046151   0.007182   0.403451
     9  H   -0.008331  -0.000314   0.003609  -0.020971  -0.003089   0.403527
    10  C    0.005183  -0.075235   0.287778  -0.002856  -0.005687   0.005973
    11  H    0.000059   0.002243  -0.057010  -0.001233  -0.000429   0.005980
    12  H   -0.000346   0.004172  -0.023757   0.004381   0.001341  -0.001937
    13  O   -0.001216  -0.090689   0.227468  -0.040564   0.003023   0.003437
    14  C   -0.004335  -0.021855  -0.133700   0.029313  -0.000748  -0.000553
    15  C   -0.000328   0.029237   0.006107  -0.016918   0.001522   0.000934
    16  C    0.000419   0.028249  -0.031968   0.005353  -0.000323  -0.000070
    17  C   -0.001100  -0.003310   0.002728  -0.000151   0.000055   0.000083
    18  C    0.000030  -0.006026  -0.000807   0.000310  -0.000021  -0.000020
    19  C    0.000026   0.000425   0.000475  -0.000160   0.000004   0.000002
    20  F    0.011105  -0.000416  -0.000310  -0.003013   0.000166  -0.000130
    21  F   -0.000001  -0.001712   0.000764  -0.000058   0.000000   0.000001
    22  F   -0.000018  -0.000001   0.000030  -0.000001  -0.000000   0.000000
    23  F   -0.000000  -0.000000   0.000029  -0.000000   0.000000   0.000000
    24  F    0.000000  -0.000000  -0.000001  -0.000000   0.000000  -0.000000
    25  O   -0.000105  -0.005789  -0.054525   0.002291  -0.000017  -0.000706
    26  C    0.000018  -0.000055   0.002013   0.000126   0.000015  -0.000110
    27  H   -0.000001   0.000038  -0.000172   0.000014  -0.000001  -0.000002
    28  H    0.000002   0.000192  -0.000758  -0.000094  -0.000016   0.000180
    29  H    0.000001  -0.000021  -0.000426   0.000038   0.000032  -0.000059
               7          8          9         10         11         12
     1  H    0.006025  -0.002404  -0.008331   0.005183   0.000059  -0.000346
     2  O    0.000225   0.019601  -0.000314  -0.075235   0.002243   0.004172
     3  C   -0.007304   0.003588   0.003609   0.287778  -0.057010  -0.023757
     4  N   -0.028782  -0.046151  -0.020971  -0.002856  -0.001233   0.004381
     5  H   -0.006814   0.007182  -0.003089  -0.005687  -0.000429   0.001341
     6  C    0.412260   0.403451   0.403527   0.005973   0.005980  -0.001937
     7  H    0.495552  -0.021285  -0.019152   0.004217  -0.001956   0.000179
     8  H   -0.021285   0.501813  -0.021888  -0.003399  -0.000487   0.000061
     9  H   -0.019152  -0.021888   0.499517  -0.000495   0.000554  -0.000023
    10  C    0.004217  -0.003399  -0.000495   4.903836   0.433224   0.388057
    11  H   -0.001956  -0.000487   0.000554   0.433224   0.585752  -0.050986
    12  H    0.000179   0.000061  -0.000023   0.388057  -0.050986   0.593369
    13  O   -0.000065   0.000884  -0.000047  -0.058998   0.004923   0.003254
    14  C    0.000082  -0.000844   0.000108   0.005518   0.000365  -0.000677
    15  C   -0.000005   0.000303  -0.000111   0.003570   0.000106  -0.001811
    16  C   -0.000001  -0.000178   0.000007   0.000435   0.000299   0.000012
    17  C   -0.000002   0.000009  -0.000006  -0.000519  -0.000009   0.000055
    18  C   -0.000000   0.000003   0.000002   0.000317   0.000044   0.000027
    19  C    0.000000   0.000005  -0.000001  -0.000026   0.000000  -0.000014
    20  F   -0.000010   0.000012   0.000015  -0.000115  -0.000000   0.000005
    21  F    0.000000   0.000001  -0.000000   0.002332  -0.000027  -0.000127
    22  F    0.000000  -0.000000   0.000000   0.000000   0.000000  -0.000000
    23  F   -0.000000  -0.000000  -0.000000  -0.000005   0.000000   0.000000
    24  F   -0.000000  -0.000000   0.000000   0.000000  -0.000000  -0.000000
    25  O    0.000019   0.000040  -0.000008   0.308166  -0.046886  -0.042891
    26  C    0.000091  -0.000018  -0.000002  -0.046454  -0.004858  -0.004689
    27  H   -0.000002  -0.000000   0.000000   0.009596   0.000214  -0.000037
    28  H   -0.000022  -0.000005   0.000003  -0.008876   0.015957  -0.004722
    29  H    0.000032   0.000006  -0.000001  -0.011535  -0.008697   0.013747
              13         14         15         16         17         18
     1  H   -0.001216  -0.004335  -0.000328   0.000419  -0.001100   0.000030
     2  O   -0.090689  -0.021855   0.029237   0.028249  -0.003310  -0.006026
     3  C    0.227468  -0.133700   0.006107  -0.031968   0.002728  -0.000807
     4  N   -0.040564   0.029313  -0.016918   0.005353  -0.000151   0.000310
     5  H    0.003023  -0.000748   0.001522  -0.000323   0.000055  -0.000021
     6  C    0.003437  -0.000553   0.000934  -0.000070   0.000083  -0.000020
     7  H   -0.000065   0.000082  -0.000005  -0.000001  -0.000002  -0.000000
     8  H    0.000884  -0.000844   0.000303  -0.000178   0.000009   0.000003
     9  H   -0.000047   0.000108  -0.000111   0.000007  -0.000006   0.000002
    10  C   -0.058998   0.005518   0.003570   0.000435  -0.000519   0.000317
    11  H    0.004923   0.000365   0.000106   0.000299  -0.000009   0.000044
    12  H    0.003254  -0.000677  -0.001811   0.000012   0.000055   0.000027
    13  O    8.037854   0.276695  -0.033606  -0.031986   0.007758   0.009567
    14  C    0.276695   5.478604   0.114903   0.213347   0.019753  -0.016245
    15  C   -0.033606   0.114903   5.297793   0.034871   0.273361  -0.018461
    16  C   -0.031986   0.213347   0.034871   5.126544  -0.004485   0.312886
    17  C    0.007758   0.019753   0.273361  -0.004485   4.996399  -0.045663
    18  C    0.009567  -0.016245  -0.018461   0.312886  -0.045663   5.017458
    19  C    0.001313   0.001145  -0.058654  -0.077247   0.388017   0.379644
    20  F   -0.001348  -0.040508   0.247338   0.005336  -0.030724  -0.000404
    21  F    0.002838  -0.070925   0.005549   0.301709  -0.001171  -0.038407
    22  F   -0.000056   0.009448  -0.054892  -0.001258   0.294558   0.007122
    23  F   -0.000062   0.009775  -0.001004  -0.053474   0.007345   0.291879
    24  F   -0.000001  -0.001144   0.009015   0.008465  -0.046319  -0.045312
    25  O   -0.000670  -0.002102  -0.000243   0.006419   0.000009   0.001161
    26  C   -0.000206   0.000059  -0.000021   0.000080  -0.000001  -0.000017
    27  H    0.000056   0.000028   0.000002  -0.000060  -0.000000  -0.000010
    28  H   -0.000048   0.000049   0.000006   0.000037  -0.000000   0.000005
    29  H    0.000032  -0.000177  -0.000019   0.000017   0.000000   0.000002
              19         20         21         22         23         24
     1  H    0.000026   0.011105  -0.000001  -0.000018  -0.000000   0.000000
     2  O    0.000425  -0.000416  -0.001712  -0.000001  -0.000000  -0.000000
     3  C    0.000475  -0.000310   0.000764   0.000030   0.000029  -0.000001
     4  N   -0.000160  -0.003013  -0.000058  -0.000001  -0.000000  -0.000000
     5  H    0.000004   0.000166   0.000000  -0.000000   0.000000   0.000000
[...]
 8,-0.00998604,-0.00549840,-0.00336186,-0.00282262,-0.17712487,0.135980
 66,-0.03592458,-0.00033491,0.00024807,-0.00232529,-0.00376567,0.004905
 42,-0.00107727,0.00400423,-0.00210160,0.00255022,0.00135674,0.00173892
 ,0.00022474,0.20428834,-0.00061284,0.00013145,0.00007676,0.00084399,0.
 00012624,-0.00110059,-0.00269461,-0.00008816,0.00243325,0.00057300,-0.
 00032239,-0.00024516,-0.00003617,0.00003415,-0.00008052,-0.00005354,-0
 .00009813,0.00028828,0.00004038,0.00000627,-0.00004497,-0.00001989,0.0
 0003681,0.00000493,0.00007304,-0.00004252,-0.00007665,0.00014898,-0.00
 033377,-0.00028357,0.00014469,0.00013972,0.00002069,-0.00002865,0.0000
 0852,0.00001448,0.00431938,0.00068362,-0.00034291,-0.00530239,-0.00183
 234,-0.00169794,-0.00159669,0.00391707,-0.00023099,0.00791500,-0.01318
 103,0.00176571,-0.00578664,0.00274613,-0.00165973,0.13619216,-0.247220
 78,0.03203227,0.04526399,-0.04632787,0.01104021,0.00507081,-0.00614051
 ,0.00108981,-0.00018750,0.01095873,0.00049772,0.00063194,-0.00578011,-
 0.00001830,-0.18146078,0.29692884,0.00010718,-0.00004494,-0.00002004,-
 0.00026803,0.00008143,0.00031308,0.00077918,-0.00009410,-0.00080411,-0
 .00019961,0.00015065,0.00008666,0.00001502,-0.00001080,0.00001783,0.00
 001186,0.00004021,-0.00008090,-0.00000999,-0.00000202,0.00001088,0.000
 00571,-0.00001197,-0.00000074,-0.00002290,0.00001170,0.00002519,-0.000
 04171,0.00008860,0.00008857,-0.00004351,-0.00004202,-0.00000394,0.0000
 0814,-0.00000170,-0.00000193,-0.00164244,0.00051659,0.00030824,-0.0011
 8986,-0.00287102,0.00448771,0.00175873,-0.00004692,-0.00225415,-0.0110
 7617,0.01424636,0.00539157,-0.00282393,-0.00100984,0.00339508,-0.03591
 406,0.03187751,-0.04439874,-0.00098230,-0.00149818,0.00763168,-0.00113
 356,0.00116116,0.00067575,0.00267311,-0.00010192,-0.00472265,0.0001739
 1,0.00031425,0.00083630,0.04595349,-0.04284393,0.03341259,0.00060363,-
 0.00030602,-0.00009971,-0.00105924,-0.00019681,0.00228615,0.00515427,0
 .00016749,-0.00498216,-0.00100484,0.00054582,0.00042220,0.00007464,-0.
 00003719,0.00013269,0.00009537,0.00023411,-0.00047185,-0.00005326,-0.0
 0001773,0.00006050,0.00003183,-0.00007249,-0.00000858,-0.00013652,0.00
 007254,0.00013847,-0.00036061,0.00067056,0.00060808,-0.00029403,-0.000
 28391,-0.00006945,0.00006259,-0.00001122,-0.00003577,-0.01083525,-0.00
 188533,-0.00065428,0.00458645,0.00062185,0.00218226,0.00446699,-0.0001
 0306,0.00016534,0.00310951,0.00342937,-0.00040311,-0.05022890,-0.01460
 501,-0.01674100,-0.04016099,-0.00160751,-0.01348237,-0.33276118,-0.042
 36060,-0.08478080,-0.00465177,0.00298707,-0.00131263,-0.00236152,-0.00
 391990,-0.00104096,0.00725480,0.00440353,0.00365369,0.00886975,-0.0036
 1341,0.00390103,0.40985240,-0.00001520,-0.00008398,0.00001632,-0.00018
 499,0.00000970,0.00036207,0.00090053,-0.00006128,-0.00081060,-0.000158
 37,0.00012142,0.00005827,0.00001351,-0.00000188,0.00001694,0.00001526,
 0.00005276,-0.00006479,-0.00000447,-0.00000429,0.00000406,0.00000571,-
 0.00001359,-0.00000230,-0.00002317,0.00001011,0.00002284,-0.00004984,0
 .00009256,0.00009462,-0.00004863,-0.00004309,-0.00001053,0.00000968,-0
 .00000128,-0.00000698,-0.00183692,-0.00011060,-0.00008962,0.00032606,0
 .00294382,0.00028729,-0.00269721,-0.00800287,-0.00114423,0.00626722,-0
 .00605373,0.00145025,0.03014956,0.00857848,0.00848108,-0.04635193,-0.0
 0204893,-0.01324183,-0.04225767,-0.08100963,-0.01314237,0.00201149,0.0
 0050424,0.00053798,-0.00293207,-0.00145319,-0.00093673,0.00110388,0.00
 704606,0.00065450,-0.00050647,0.00539457,0.00016531,0.05633758,0.07419
 693,0.00014790,-0.00008746,-0.00002492,-0.00005999,-0.00004100,0.00078
 042,0.00138559,0.00000458,-0.00190411,-0.00029240,0.00018236,0.0001243
 3,0.00001572,-0.00000775,0.00003708,0.00001885,0.00006908,-0.00013734,
 -0.00001475,-0.00000391,0.00001715,0.00001043,-0.00002114,-0.00000195,
 -0.00003935,0.00001834,0.00004010,-0.00015057,0.00020920,0.00023279,-0
 .00009071,-0.00009328,-0.00002697,0.00001549,-0.00000320,-0.00001146,-
 0.00367003,-0.00057781,0.00103772,0.00237265,0.00034862,-0.00216130,0.
 00023071,-0.00029004,0.00428726,-0.00003499,0.00064164,0.00428138,-0.0
 1576461,-0.00413224,0.00362673,-0.01501183,-0.00083542,0.00392257,-0.0
 8475770,-0.01318405,-0.05892108,-0.00151843,0.00085255,0.00035725,-0.0
 0094974,-0.00120463,0.00030088,0.00364615,0.00164101,-0.00445774,0.004
 02300,-0.00065479,-0.00438906,0.11055241,0.01729865,0.05299925,0.00090
 823,-0.00092875,-0.00000901,0.00040287,-0.00165918,0.00071346,0.011725
 43,-0.01627884,0.00524092,-0.00174618,-0.00746254,-0.00147967,-0.00036
 400,-0.00011953,-0.00020725,-0.00063748,-0.00058545,0.00075198,0.00042
 895,-0.00004781,-0.00023713,0.00005697,0.00008632,-0.00001238,0.000524
 37,0.00007248,-0.00032154,-0.11336478,0.04047957,-0.02140379,-0.012333
 46,0.03534736,-0.00429339,-0.00182704,0.01178390,-0.00463071,0.0004355
 4,-0.00123103,-0.00121489,0.00117431,0.00052392,0.00023356,-0.00014020
 ,0.00026336,-0.00001746,0.00041783,0.00134201,0.00016599,0.00012325,0.
 00028610,0.00006593,0.00017563,-0.00043467,0.00000427,0.00028935,0.000
 07743,0.00006594,0.00001684,-0.00025235,0.00000938,-0.00245178,-0.0013
 3423,-0.00001325,-0.00017460,-0.00037559,-0.00005885,-0.00024331,0.000
 25066,-0.00006107,-0.00040025,-0.00009497,-0.00010850,0.29951378,0.001
 64056,-0.00091471,-0.00025936,-0.00213392,-0.00003783,-0.00101419,0.01
 353934,-0.03403484,0.00268316,-0.00387350,-0.00444845,-0.00234417,-0.0
 0032825,0.00213978,-0.00040330,-0.00031157,-0.00069633,0.00119819,-0.0
 0044086,0.00025387,0.00005146,0.00010529,0.00005849,-0.00008098,0.0002
 7717,-0.00038896,-0.00048047,0.08023803,-0.21659476,0.02612348,0.01562
 409,-0.02375832,-0.00273572,0.01053432,-0.02847844,0.00981581,-0.00310
 268,-0.00007618,-0.00053650,0.00174738,0.00081479,0.00105160,-0.000257
 12,0.00027229,-0.00011995,-0.00023449,-0.00044111,-0.00016311,0.000215
 04,0.00042088,0.00004296,0.00035653,-0.00026322,0.00003250,0.00040320,
 0.00003886,0.00012337,-0.00010293,-0.00028332,0.00007382,-0.00054028,0
 .00054078,0.00004630,-0.00022510,-0.00042111,-0.00007018,-0.00036676,0
 .00034109,-0.00009756,-0.00060697,-0.00009428,-0.00017048,0.02350412,0
 .49591177,0.00062780,-0.00060414,0.00017120,0.00033719,-0.00172160,0.0
 0162324,0.00714660,-0.01028804,0.00041595,-0.00141948,-0.00363925,-0.0
 0031729,0.00005189,-0.00055541,-0.00023429,-0.00015558,-0.00000465,0.0
 0049543,-0.00013474,0.00015710,0.00002539,-0.00001961,0.00002401,0.000
 02681,0.00011518,-0.00008203,-0.00009352,-0.01706754,0.00690271,-0.073
 23152,0.00470484,-0.01697733,0.00787277,-0.01538839,0.03393372,0.00140
 115,-0.00098042,0.00034634,0.00063439,0.00013067,-0.00003225,0.0002364
 9,-0.00001704,0.00006951,-0.00005267,0.00003676,-0.00007871,-0.0000466
 7,0.00005109,0.00010590,0.00000820,0.00009083,-0.00006417,0.00001372,0
 .00008864,0.00001096,0.00002594,-0.00005098,-0.00005569,0.00002557,-0.
 00019887,0.00013773,0.00015740,-0.00005142,-0.00009909,-0.00001620,-0.
 00007928,0.00007558,-0.00002157,-0.00012902,-0.00001994,-0.00003966,0.
 09776535,0.04356335,0.14742872,-0.00045138,0.00036702,0.00009287,0.001
 65581,0.00087816,0.00162164,-0.00540014,-0.00058327,-0.00194922,0.0007
 6534,0.00269811,0.00055816,0.00013517,-0.00065310,0.00021198,0.0002646
 4,0.00012834,-0.00056171,0.00009646,-0.00009302,-0.00002549,0.00000041
 ,-0.00003110,0.00002947,-0.00012651,0.00010901,0.00016658,0.00630933,0
 .00463193,0.00611925,0.00141556,0.00599639,0.00010786,-0.00017566,0.00
 396582,-0.00057879,0.00211768,0.00063534,-0.00011412,-0.00084348,-0.00
 002985,-0.00051210,0.00022240,-0.00017733,0.00010969,0.00012551,0.0001
 6956,0.00008126,-0.00010962,-0.00018244,-0.00002473,-0.00017055,0.0001
 4397,-0.00004162,-0.00019039,-0.00002096,-0.00005509,0.00000763,0.0001
 4516,-0.00003998,0.00017273,-0.00005091,-0.00000142,0.00011692,0.00020
 995,0.00003803,0.00016653,-0.00015515,0.00004399,0.00028645,0.00004685
 ,0.00008241,-0.15327421,-0.08553495,-0.05094603,0.53058949,0.00002737,
 -0.00014586,0.00007667,0.00059798,0.00224248,0.00074972,0.00148450,-0.
 00622530,0.00091967,-0.00037779,-0.00019487,-0.00006023,-0.00001967,-0
 .00047983,0.00005385,-0.00001051,0.00001318,-0.00016847,0.00016581,-0.
 00004992,-0.00005818,0.00002198,-0.00003760,-0.00000551,0.00004164,0.0
 0011584,0.00003656,-0.02534892,-0.05209013,-0.01586407,-0.00217685,0.0
 0437547,0.00026844,-0.00161573,0.00430360,-0.00163276,0.00126133,0.001
 13393,-0.00001956,-0.00101811,-0.00011520,-0.00028944,0.00022996,-0.00
 018625,0.00005657,-0.00012024,-0.00033618,-0.00000448,-0.00008762,-0.0
 0017002,-0.00002148,-0.00017574,0.00019679,-0.00003592,-0.00017748,-0.
 00002525,-0.00004596,-0.00005095,0.00015740,-0.00002168,0.00073265,0.0
 0028308,-0.00004719,0.00011156,0.00021637,0.00003797,0.00016516,-0.000
 15134,0.00004139,0.00026763,0.00005203,0.00007227,-0.04778371,-0.14798
 955,-0.02982464,-0.06428172,0.56695925,-0.00022075,0.00016578,0.000065
 45,0.00076214,-0.00009006,0.00122698,-0.00244353,-0.00107302,-0.002321
 75,0.00018714,0.00133916,0.00045718,0.00009639,-0.00034045,0.00017657,
 0.00000769,0.00020111,-0.00024965,0.00010911,-0.00005041,-0.00000812,-
 0.00000678,-0.00001785,0.00001693,-0.00003958,0.00010618,0.00011662,0.
 00355740,-0.00082482,-0.00399121,-0.00234079,0.00022970,0.00086328,0.0
 0081618,0.00485609,0.00271274,0.00102447,0.00082869,0.00017934,-0.0006
 2861,-0.00013044,-0.00032980,0.00015392,-0.00012505,0.00005985,0.00000
 528,-0.00006327,0.00002425,-0.00006317,-0.00011976,-0.00001470,-0.0001
 2108,0.00010877,-0.00002087,-0.00012550,-0.00001375,-0.00003706,-0.000
 01235,0.00010795,-0.00002537,0.00033303,0.00005844,-0.00000444,0.00007
 916,0.00014763,0.00002708,0.00011803,-0.00010504,0.00002972,0.00018963
 ,0.00003434,0.00005380,-0.04752502,-0.04793367,-0.08707438,-0.01653495
 ,-0.02967709,0.54510670,0.00009154,-0.00009774,-0.00001521,-0.00015381
 ,0.00011886,-0.00009710,0.00115492,-0.00061731,0.00031678,-0.00024338,
 -0.00054203,-0.00012421,-0.00002901,0.00006725,-0.00003394,-0.00005144
 ,-0.00002494,0.00007551,0.00000111,0.00001253,-0.00000267,0.00000460,-
 0.00000029,-0.00000539,0.00002861,-0.00000562,-0.00002386,-0.00234301,
 -0.00301442,-0.00155928,0.00026981,-0.00031864,-0.00027311,-0.00009217
 ,-0.00005435,0.00016366,-0.00006616,0.00002609,-0.00002085,0.00005691,
 0.00002358,0.00003073,-0.00000467,0.00000203,-0.00000521,-0.00001973,-
 0.00003883,-0.00000825,0.00000731,0.00001263,0.00000187,0.00001114,-0.
 00000372,0.00000136,0.00001176,0.00000094,0.00000272,-0.00000977,-0.00
 000519,0.00000225,0.00003052,0.00003752,0.00000086,-0.00000660,-0.0000
 1114,-0.00000159,-0.00001097,0.00001075,-0.00000302,-0.00001778,-0.000
 00212,-0.00000466,0.00902095,-0.02852975,0.00203701,-0.10278319,0.1146
 3339,-0.01724577,0.10555126,0.00014239,-0.00010403,-0.00002064,-0.0004
 7845,-0.00016769,-0.00055579,0.00197837,0.00025391,0.00090846,-0.00024
 167,-0.00076839,-0.00015680,-0.00003530,0.00011985,-0.00006307,-0.0000
 6491,-0.00006674,0.00015051,-0.00001519,0.00002326,-0.00000190,0.00000
 141,0.00001262,-0.00000638,0.00004363,-0.00002544,-0.00005165,-0.00510
 653,-0.00020257,-0.00246014,0.00021920,0.00001168,-0.00009755,0.000056
 83,0.00003001,0.00018989,-0.00060174,-0.00020871,0.00000914,0.00025171
 ,0.00000988,0.00014888,-0.00006348,0.00005009,-0.00002786,-0.00002488,
 -0.00004825,-0.00001958,0.00002979,0.00005075,0.00000598,0.00005125,-0
 .00004254,0.00001225,0.00005351,0.00000515,0.00001595,-0.00000223,-0.0
 0003927,0.00001052,-0.00004229,0.00003208,0.00001136,-0.00003282,-0.00
 005804,-0.00001095,-0.00004855,0.00004611,-0.00001316,-0.00008113,-0.0
 0001293,-0.00002341,0.00481543,-0.02921482,0.00003732,0.10284860,-0.25
 972929,0.03397934,-0.10751662,0.29210208,0.00005014,-0.00005095,-0.000
 00972,0.00000659,0.00007827,-0.00002463,0.00046097,-0.00036166,0.00066
 372,-0.00012004,-0.00027807,-0.00011009,-0.00001744,0.00004250,-0.0000
 2329,-0.00001871,-0.00002803,0.00004580,-0.00000217,0.00000821,-0.0000
 0057,0.00000184,0.00000118,-0.00000192,0.00001532,-0.00000612,-0.00001
 749,-0.00170066,-0.00143368,-0.00058816,-0.00013554,0.00024367,-0.0000
 0270,0.00007041,-0.00045000,0.00034549,-0.00018665,-0.00004146,-0.0000
 1718,0.00003107,-0.00000519,0.00004320,-0.00001531,0.00001239,-0.00000
 800,-0.00001014,-0.00002040,-0.00000639,0.00000733,0.00001096,0.000001
 08,0.00001004,-0.00000753,0.00000242,0.00001196,0.00000155,0.00000394,
 -0.00000156,-0.00000879,0.00000339,0.00000296,0.00001393,-0.00000004,-
 0.00000754,-0.00001293,-0.00000245,-0.00001024,0.00000955,-0.00000316,
 -0.00001790,-0.00000279,-0.00000554,0.00454084,-0.01599392,0.00132219,
 -0.01812286,0.03964619,-0.05508814,0.02113859,-0.03349592,0.05293210,0
 .00006823,-0.00003716,-0.00001818,-0.00021029,-0.00036047,-0.00023093,
 0.00075416,0.00070151,0.00005717,-0.00008828,-0.00034853,-0.00008508,-
 0.00001648,0.00010857,-0.00003897,-0.00002554,-0.00004329,0.00009110,-
 0.00002892,0.00001606,0.00000632,-0.00000216,0.00001092,-0.00000016,0.
 00001618,-0.00002865,-0.00003010,0.00025292,0.00442990,-0.00105431,0.0
 0057251,-0.00175321,-0.00003517,0.00004467,-0.00049905,0.00033475,-0.0
 0020895,-0.00024932,-0.00005369,0.00028523,0.00008133,0.00008591,-0.00
 004955,0.00004994,-0.00001644,0.00004156,0.00010915,-0.00000022,0.0000
 2397,0.00005313,0.00000946,0.00004907,-0.00005609,0.00001098,0.0000532
 1,0.00000791,0.00001175,0.00000744,-0.00004590,0.00000576,-0.00022553,
 -0.00009103,0.00000683,-0.00003203,-0.00006422,-0.00001073,-0.00004864
 ,0.00004415,-0.00001248,-0.00007820,-0.00001542,-0.00002088,-0.0287408
 4,-0.01432575,0.00296399,-0.22763503,0.01664310,0.10884468,-0.00938130
 ,0.00111311,0.00739175,0.25960952,0.00001187,-0.00000012,-0.00000711,0
 .00009094,-0.00010876,0.00003266,-0.00018231,0.00027190,-0.00007361,-0
 .00000453,-0.00011540,-0.00002753,-0.00000867,0.00001238,-0.00000039,-
 0.00000855,-0.00001979,0.00000554,0.00000816,0.00000342,-0.00000476,0.
 00000257,0.00000392,0.00000085,0.00001142,-0.00000072,-0.00000531,-0.0
 0465319,0.00482989,0.00206271,0.00146701,0.00053016,-0.00066504,0.0003
 0766,-0.00043780,-0.00003431,0.00014704,-0.00018264,-0.00006573,0.0001
 3036,0.00003385,-0.00001314,-0.00001496,0.00001119,0.00000152,0.000039
 52,0.00008764,0.00000995,0.00000512,0.00001367,0.00000452,0.00001244,-
 0.00002437,0.00000559,0.00001516,0.00000292,0.00000223,0.00000440,-0.0
 0001295,-0.00000170,-0.00013971,-0.00006669,-0.00000030,-0.00001004,-0
 .00002095,-0.00000360,-0.00001483,0.00001433,-0.00000369,-0.00002125,-
 0.00000518,-0.00000552,-0.02922983,-0.00801464,0.00735509,0.01999244,-
 0.05246121,-0.00957867,0.02309256,0.00052812,-0.01482360,-0.00651286,0
 .05346085,-0.00000314,0.00000977,-0.00000382,0.00004230,-0.00004206,-0
 .00004890,-0.00023998,0.00026960,0.00005948,0.00002828,0.00001141,-0.0
 0000100,0.00000150,-0.00000340,-0.00000355,0.00001050,-0.00001146,-0.0
 0000573,-0.00000313,0.00000548,-0.00000109,-0.00000090,0.00000127,0.00
 000092,-0.00000217,-0.00000311,0.00000155,-0.00156951,0.00155964,0.001
 13066,0.00081152,0.00075399,-0.00047873,0.00021746,-0.00035292,-0.0005
 5360,-0.00002677,-0.00012714,-0.00001547,0.00005848,-0.00000017,0.0000
 0936,-0.00001262,0.00000740,-0.00000221,0.00001173,0.00002303,0.000002
 08,0.00000271,0.00000438,0.00000068,0.00000688,-0.00001009,0.00000186,
 0.00000614,0.00000062,0.00000185,0.00000270,-0.00000534,0.00000033,-0.
 00004792,-0.00001385,0.00000152,-0.00000470,-0.00000838,-0.00000177,-0
 .00000670,0.00000654,-0.00000166,-0.00000955,-0.00000199,-0.00000274,-
 0.01578787,-0.00220794,0.01088966,0.11179522,-0.00903143,-0.11740244,-
 0.00515058,0.00063018,0.00292340,-0.11660971,0.01134274,0.11849560,0.0
 0003667,-0.00001293,-0.00001313,-0.00007207,-0.00043666,-0.00001447,0.
 00018592,0.00053854,-0.00002454,-0.00003959,-0.00018551,-0.00003569,-0
 .00000316,0.00006980,-0.00001205,-0.00002642,-0.00001643,0.00005397,-0
 .00001160,0.00000988,0.00000561,-0.00000381,0.00000726,0.00000206,0.00
 001239,-0.00001301,-0.00001428,-0.00067029,0.00378497,-0.00018448,-0.0
 0001592,-0.00058835,0.00020095,0.00034763,-0.00057531,0.00082500,-0.00
 024689,-0.00011095,0.00004592,0.00015105,0.00002032,0.00006019,-0.0000
 3132,0.00003100,-0.00001299,0.00001095,0.00001681,-0.00000719,0.000015
 13,0.00002847,0.00000422,0.00002725,-0.00002735,0.00000731,0.00003029,
 0.00000353,0.00000726,0.00000359,-0.00002416,0.00000464,-0.00008085,-0
 .00001861,0.00001716,-0.00001806,-0.00003409,-0.00000613,-0.00002683,0
 .00002534,-0.00000671,-0.00004434,-0.00000786,-0.00001218,-0.00951616,
 -0.00727019,-0.02950945,-0.05328790,0.00686096,-0.02897638,-0.00102745
 ,0.00275055,-0.01337306,0.00499306,-0.00453793,0.02647982,0.05930873,0
 .00000530,0.00000247,0.00000503,0.00010558,-0.00042824,0.00019188,-0.0
 0027769,0.00020473,-0.00026291,-0.00000524,-0.00003554,0.00003213,0.00
 001516,-0.00004356,0.00000343,0.00000013,0.00000557,0.00000764,-0.0000
 0134,0.00000587,0.00000325,-0.00000600,0.00000386,0.00000702,0.0000004
 8,0.00000077,0.00000389,-0.00176579,0.00530657,-0.00467162,0.00016391,
 -0.00047627,0.00031483,0.00043185,0.00055430,0.00165450,-0.00000120,-0
 .00000707,0.00004120,0.00003188,0.00000651,0.00000851,-0.00000102,0.00
 000781,-0.00000009,0.00002372,0.00003386,0.00000133,0.00000230,0.00000
 668,0.00000116,0.00000602,-0.00001029,0.00000239,0.00000581,0.00000176
 ,0.00000069,0.00000171,-0.00000494,-0.00000001,-0.00005069,-0.00002988
 ,0.00001062,-0.00000319,-0.00000804,-0.00000117,-0.00000528,0.00000529
 ,-0.00000138,-0.00000801,-0.00000196,-0.00000216,-0.01101417,-0.004641
 71,-0.02867238,0.00882714,-0.05966162,0.04798017,0.00274458,-0.0025868
 6,0.02695265,0.00106215,0.00166699,-0.00280678,-0.00028809,0.06012293,
 0.00005624,-0.00003279,-0.00001684,-0.00001056,-0.00020230,0.00001813,
 0.00042923,0.00027514,0.00042382,-0.00010391,-0.00027341,-0.00009613,-
 0.00001484,0.00010023,-0.00002527,-0.00001819,-0.00003052,0.00006522,-
 0.00002041,0.00001487,0.00000314,-0.00000013,0.00000771,-0.00000006,0.
 00001361,-0.00001892,-0.00002172,-0.00082328,0.00301551,0.00155065,0.0
 0045078,-0.00012068,-0.00045153,0.00033133,-0.00178848,-0.00018738,-0.
 00028933,-0.00019831,-0.00001104,0.00019119,0.00002583,0.00007910,-0.0
 0004294,0.00003696,-0.00001491,0.00001370,0.00003450,-0.00000571,0.000
 01833,0.00003391,0.00000426,0.00003221,-0.00003364,0.00000819,0.000036
 20,0.00000506,0.00000914,0.00000424,-0.00003041,0.00000612,-0.00010818
 ,-0.00003336,0.00001092,-0.00002228,-0.00004249,-0.00000733,-0.0000321
 3,0.00002932,-0.00000820,-0.00005331,-0.00000981,-0.00001483,-0.012175
 85,-0.01019448,-0.01164645,-0.03155029,0.04484877,-0.28454858,0.000803
 35,0.00089503,-0.00237726,-0.00160341,0.00449060,-0.01499625,0.0444886
 1,-0.04080381,0.31225081\\0.00000003,0.00000037,0.00000299,0.00000015,
 -0.00000312,-0.00000129,-0.00000199,0.00000130,0.00000089,0.00000055,0
 .00000030,0.00000159,0.00000084,0.00000132,0.00000102,-0.00000061,-0.0
 0000116,0.00000128,-0.00000037,-0.00000092,-0.00000018,-0.00000127,-0.
 00000301,0.00000133,0.00000001,-0.00000130,0.00000286,0.00000031,0.000
 00015,-0.00000266,-0.00000047,0.00000014,-0.00000333,0.00000095,0.0000
 0198,-0.00000219,0.00000109,0.00000035,0.00000002,0.00000037,0.0000008
 9,0.00000090,0.,0.00000046,0.00000429,0.00000009,-0.00000051,-0.000000
 48,0.00000007,-0.00000076,0.00000465,-0.00000013,-0.00000045,0.0000011
 8,-0.00000010,-0.00000112,0.00000344,0.00000099,0.00000068,0.00000446,
 -0.00000062,0.00000018,-0.00000136,0.00000027,-0.00000085,0.00000677,-
 0.00000038,-0.00000121,0.00000017,-0.00000012,-0.00000171,0.00000449,0
 .00000016,0.00000143,-0.00000462,-0.00000010,0.00000154,-0.00000631,-0
 .00000029,0.00000133,-0.00000736,-0.00000008,0.00000074,-0.00000681,0.
 00000063,0.00000298,-0.00000576\\\@


 LOGIC IS A SYSTEMATIC METHOD OF COMING TO THE
 WRONG CONCLUSION WITH CONFIDENCE.
 Job cpu time:       0 days  9 hours 36 minutes 55.1 seconds.
 Elapsed time:       0 days  0 hours 24 minutes  4.1 seconds.
 File lengths (MBytes):  RWF=   1226 Int=      0 D2E=      0 Chk=     47 Scr=      1
 Normal termination of Gaussian 16 at Thu Aug 29 02:56:00 2024.
