 Entering Gaussian System, Link 0=g16
 Input=input.com
 Output=input.log
 Initial command:
 /share/apps/g16.b01_avx2/g16/l1.exe "/scratch/Gau-307104.inp" -scrdir="/scratch/"
 Entering Link 1 = /share/apps/g16.b01_avx2/g16/l1.exe PID=    307106.
  
 Copyright (c) 1988-2017, Gaussian, Inc.  All Rights Reserved.
  
 This is part of the Gaussian(R) 16 program.  It is based on
 the Gaussian(R) 09 system (copyright 2009, Gaussian, Inc.),
 the Gaussian(R) 03 system (copyright 2003, Gaussian, Inc.),
 the Gaussian(R) 98 system (copyright 1998, Gaussian, Inc.),
 the Gaussian(R) 94 system (copyright 1995, Gaussian, Inc.),
 the Gaussian 92(TM) system (copyright 1992, Gaussian, Inc.),
 the Gaussian 90(TM) system (copyright 1990, Gaussian, Inc.),
 the Gaussian 88(TM) system (copyright 1988, Gaussian, Inc.),
 the Gaussian 86(TM) system (copyright 1986, Carnegie Mellon
 University), and the Gaussian 82(TM) system (copyright 1983,
 Carnegie Mellon University). Gaussian is a federally registered
 trademark of Gaussian, Inc.
  
 This software contains proprietary and confidential information,
 including trade secrets, belonging to Gaussian, Inc.
  
 This software is provided under written license and may be
 used, copied, transmitted, or stored only in accord with that
 written license.
  
 The following legend is applicable only to US Government
 contracts under FAR:
  
                    RESTRICTED RIGHTS LEGEND
  
 Use, reproduction and disclosure by the US Government is
 subject to restrictions as set forth in subparagraphs (a)
 and (c) of the Commercial Computer Software - Restricted
 Rights clause in FAR 52.227-19.
  
 Gaussian, Inc.
 340 Quinnipiac St., Bldg. 40, Wallingford CT 06492
  
  
 ---------------------------------------------------------------
 Warning -- This program may not be used in any manner that
 competes with the business of Gaussian, Inc. or will provide
 assistance to any competitor of Gaussian, Inc.  The licensee
 of this program is prohibited from giving any competitor of
 Gaussian, Inc. access to this program.  By using this program,
 the user acknowledges that Gaussian, Inc. is engaged in the
 business of creating and licensing software in the field of
 computational chemistry and represents and warrants to the
 licensee that it is not a competitor of Gaussian, Inc. and that
 it will not use this program in any manner prohibited above.
 ---------------------------------------------------------------
  

 Cite this work as:
 Gaussian 16, Revision B.01,
 M. J. Frisch, G. W. Trucks, H. B. Schlegel, G. E. Scuseria, 
 M. A. Robb, J. R. Cheeseman, G. Scalmani, V. Barone, 
 G. A. Petersson, H. Nakatsuji, X. Li, M. Caricato, A. V. Marenich, 
 J. Bloino, B. G. Janesko, R. Gomperts, B. Mennucci, H. P. Hratchian, 
 J. V. Ortiz, A. F. Izmaylov, J. L. Sonnenberg, D. Williams-Young, 
 F. Ding, F. Lipparini, F. Egidi, J. Goings, B. Peng, A. Petrone, 
 T. Henderson, D. Ranasinghe, V. G. Zakrzewski, J. Gao, N. Rega, 
 G. Zheng, W. Liang, M. Hada, M. Ehara, K. Toyota, R. Fukuda, 
 J. Hasegawa, M. Ishida, T. Nakajima, Y. Honda, O. Kitao, H. Nakai, 
 T. Vreven, K. Throssell, J. A. Montgomery, Jr., J. E. Peralta, 
 F. Ogliaro, M. J. Bearpark, J. J. Heyd, E. N. Brothers, K. N. Kudin, 
 V. N. Staroverov, T. A. Keith, R. Kobayashi, J. Normand, 
 K. Raghavachari, A. P. Rendell, J. C. Burant, S. S. Iyengar, 
 J. Tomasi, M. Cossi, J. M. Millam, M. Klene, C. Adamo, R. Cammi, 
 J. W. Ochterski, R. L. Martin, K. Morokuma, O. Farkas, 
 J. B. Foresman, and D. J. Fox, Gaussian, Inc., Wallingford CT, 2016.
 
 ******************************************
 Gaussian 16:  ES64L-G16RevB.01 20-Dec-2017
                 2-Jul-2024 
 ******************************************
 %nproc=16
 Will use up to   16 processors via shared memory.
 %mem=60GB
 ----------------------------------------------------------------------
 #P PBE1PBE/def2TZVP opt freq EmpiricalDispersion=GD3 Int=(grid=99590) 
 scrf=(iefpcm, solvent=water)
 ----------------------------------------------------------------------
 1/18=20,19=15,26=6,38=1/1,3;
 2/9=110,12=2,17=6,18=5,40=1/2;
 3/5=44,7=101,11=2,25=1,30=1,70=2201,71=1,72=1,74=-13,75=99590,124=31/1,2,3;
 4//1;
 5/5=2,38=5,53=1/2;
 6/7=2,8=2,9=2,10=2,28=1/1;
 7//1,2,3,16;
 1/18=20,19=15,26=6/3(2);
 2/9=110/2;
 99//99;
 2/9=110/2;
 3/5=44,7=101,11=2,25=1,30=1,70=2205,71=1,72=1,74=-13,75=99590,124=31/1,2,3;
 4/5=5,16=3,69=1/1;
 5/5=2,38=5,53=1/2;
 7//1,2,3,16;
 1/18=20,19=15,26=6/3(-5);
 2/9=110/2;
 6/7=2,8=2,9=2,10=2,19=2,28=1/1;
 99/9=1/99;
 Leave Link    1 at Tue Jul  2 22:22:12 2024, MaxMem=  8053063680 cpu:               0.4 elap:               0.0
 (Enter /share/apps/g16.b01_avx2/g16/l101.exe)
 ------------------
 tfp-pyridine-ester
 ------------------
 Symbolic Z-matrix:
 Charge =  0 Multiplicity = 1
 C                    -2.22104  -0.18728   0. 
 C                    -0.81416  -0.18728   0. 
 C                    -0.14747   1.03933   0. 
 C                    -0.90154   2.21411  -0.00024 
 C                    -2.30475   2.11131  -0.00038 
 N                    -2.96428   0.93636  -0.0002 
 O                     1.28159   1.09107  -0.00124 
 C                     1.75973   1.11007   1.34633 
 O                     1.00077   1.0838    2.31048 
 C                     3.29028   1.16564   1.50732 
 H                     3.72902   0.30646   1.04448 
 H                     3.66595   2.05262   1.04145 
 H                     3.5393    1.17644   2.54788 
 F                    -0.13176  -1.35211   0.00032 
 F                    -0.30611   3.42571  -0.00037 
 F                    -3.07876   3.21738  -0.00048 
 F                    -2.91224  -1.34691   0.00015 
 
 ITRead=  0  0  0  0  0  0  0  0  0  0  0  0  0  0  0  0  0
 MicOpt= -1 -1 -1 -1 -1 -1 -1 -1 -1 -1 -1 -1 -1 -1 -1 -1 -1
 NAtoms=     17 NQM=       17 NQMF=       0 NMMI=      0 NMMIF=      0
                NMic=       0 NMicF=      0.
                    Isotopes and Nuclear Properties:
 (Nuclear quadrupole moments (NQMom) in fm**2, nuclear magnetic moments (NMagM)
  in nuclear magnetons)

  Atom         1           2           3           4           5           6           7           8           9          10
 IAtWgt=          12          12          12          12          12          14          16          12          16          12
 AtmWgt=  12.0000000  12.0000000  12.0000000  12.0000000  12.0000000  14.0030740  15.9949146  12.0000000  15.9949146  12.0000000
 NucSpn=           0           0           0           0           0           2           0           0           0           0
 AtZEff=  -0.0000000  -0.0000000  -0.0000000  -0.0000000  -0.0000000  -0.0000000  -0.0000000  -0.0000000  -0.0000000  -0.0000000
 NQMom=    0.0000000   0.0000000   0.0000000   0.0000000   0.0000000   2.0440000   0.0000000   0.0000000   0.0000000   0.0000000
 NMagM=    0.0000000   0.0000000   0.0000000   0.0000000   0.0000000   0.4037610   0.0000000   0.0000000   0.0000000   0.0000000
 AtZNuc=   6.0000000   6.0000000   6.0000000   6.0000000   6.0000000   7.0000000   8.0000000   6.0000000   8.0000000   6.0000000

  Atom        11          12          13          14          15          16          17
 IAtWgt=           1           1           1          19          19          19          19
 AtmWgt=   1.0078250   1.0078250   1.0078250  18.9984032  18.9984032  18.9984032  18.9984032
 NucSpn=           1           1           1           1           1           1           1
 AtZEff=  -0.0000000  -0.0000000  -0.0000000  -0.0000000  -0.0000000  -0.0000000  -0.0000000
 NQMom=    0.0000000   0.0000000   0.0000000   0.0000000   0.0000000   0.0000000   0.0000000
 NMagM=    2.7928460   2.7928460   2.7928460   2.6288670   2.6288670   2.6288670   2.6288670
 AtZNuc=   1.0000000   1.0000000   1.0000000   9.0000000   9.0000000   9.0000000   9.0000000
 Leave Link  101 at Tue Jul  2 22:22:12 2024, MaxMem=  8053063680 cpu:               5.1 elap:               0.3
 (Enter /share/apps/g16.b01_avx2/g16/l103.exe)

 GradGradGradGradGradGradGradGradGradGradGradGradGradGradGradGradGradGrad
 Berny optimization.
 Initialization pass.
                           ----------------------------
                           !    Initial Parameters    !
                           ! (Angstroms and Degrees)  !
 --------------------------                            --------------------------
 ! Name  Definition              Value          Derivative Info.                !
 --------------------------------------------------------------------------------
 ! R1    R(1,2)                  1.4069         estimate D2E/DX2                !
 ! R2    R(1,6)                  1.3472         estimate D2E/DX2                !
 ! R3    R(1,17)                 1.35           estimate D2E/DX2                !
 ! R4    R(2,3)                  1.3961         estimate D2E/DX2                !
 ! R5    R(2,14)                 1.35           estimate D2E/DX2                !
 ! R6    R(3,4)                  1.396          estimate D2E/DX2                !
 ! R7    R(3,7)                  1.43           estimate D2E/DX2                !
 ! R8    R(4,5)                  1.407          estimate D2E/DX2                !
 ! R9    R(4,15)                 1.35           estimate D2E/DX2                !
 ! R10   R(5,6)                  1.3474         estimate D2E/DX2                !
 ! R11   R(5,16)                 1.35           estimate D2E/DX2                !
 ! R12   R(7,8)                  1.43           estimate D2E/DX2                !
 ! R13   R(8,9)                  1.2273         estimate D2E/DX2                !
 ! R14   R(8,10)                 1.54           estimate D2E/DX2                !
 ! R15   R(10,11)                1.07           estimate D2E/DX2                !
 ! R16   R(10,12)                1.07           estimate D2E/DX2                !
 ! R17   R(10,13)                1.07           estimate D2E/DX2                !
 ! A1    A(2,1,6)              123.4828         estimate D2E/DX2                !
 ! A2    A(2,1,17)             120.7972         estimate D2E/DX2                !
 ! A3    A(6,1,17)             115.72           estimate D2E/DX2                !
 ! A4    A(1,2,3)              118.5252         estimate D2E/DX2                !
 ! A5    A(1,2,14)             120.3635         estimate D2E/DX2                !
 ! A6    A(3,2,14)             121.1114         estimate D2E/DX2                !
 ! A7    A(2,3,4)              118.7792         estimate D2E/DX2                !
 ! A8    A(2,3,7)              120.5988         estimate D2E/DX2                !
 ! A9    A(4,3,7)              120.6219         estimate D2E/DX2                !
 ! A10   A(3,4,5)              118.5054         estimate D2E/DX2                !
 ! A11   A(3,4,15)             121.1328         estimate D2E/DX2                !
 ! A12   A(5,4,15)             120.3618         estimate D2E/DX2                !
 ! A13   A(4,5,6)              123.4969         estimate D2E/DX2                !
 ! A14   A(4,5,16)             120.7935         estimate D2E/DX2                !
 ! A15   A(6,5,16)             115.7097         estimate D2E/DX2                !
 ! A16   A(1,6,5)              117.2105         estimate D2E/DX2                !
 ! A17   A(3,7,8)              109.5            estimate D2E/DX2                !
 ! A18   A(7,8,9)              122.2249         estimate D2E/DX2                !
 ! A19   A(7,8,10)             115.5502         estimate D2E/DX2                !
 ! A20   A(9,8,10)             122.2249         estimate D2E/DX2                !
 ! A21   A(8,10,11)            109.4712         estimate D2E/DX2                !
 ! A22   A(8,10,12)            109.4712         estimate D2E/DX2                !
 ! A23   A(8,10,13)            109.4712         estimate D2E/DX2                !
 ! A24   A(11,10,12)           109.4713         estimate D2E/DX2                !
 ! A25   A(11,10,13)           109.4712         estimate D2E/DX2                !
 ! A26   A(12,10,13)           109.4712         estimate D2E/DX2                !
 ! D1    D(6,1,2,3)              0.01           estimate D2E/DX2                !
 ! D2    D(6,1,2,14)           179.9941         estimate D2E/DX2                !
 ! D3    D(17,1,2,3)          -179.9926         estimate D2E/DX2                !
 ! D4    D(17,1,2,14)           -0.0086         estimate D2E/DX2                !
 ! D5    D(2,1,6,5)             -0.001          estimate D2E/DX2                !
 ! D6    D(17,1,6,5)          -179.9985         estimate D2E/DX2                !
 ! D7    D(1,2,3,4)             -0.0113         estimate D2E/DX2                !
 ! D8    D(1,2,3,7)           -179.9425         estimate D2E/DX2                !
 ! D9    D(14,2,3,4)          -179.9952         estimate D2E/DX2                !
 ! D10   D(14,2,3,7)             0.0736         estimate D2E/DX2                !
 ! D11   D(2,3,4,5)              0.0043         estimate D2E/DX2                !
 ! D12   D(2,3,4,15)          -179.9944         estimate D2E/DX2                !
 ! D13   D(7,3,4,5)            179.9354         estimate D2E/DX2                !
 ! D14   D(7,3,4,15)            -0.0632         estimate D2E/DX2                !
 ! D15   D(2,3,7,8)            -90.101          estimate D2E/DX2                !
 ! D16   D(4,3,7,8)             89.969          estimate D2E/DX2                !
 ! D17   D(3,4,5,6)              0.0051         estimate D2E/DX2                !
 ! D18   D(3,4,5,16)           179.9933         estimate D2E/DX2                !
 ! D19   D(15,4,5,6)          -179.9962         estimate D2E/DX2                !
 ! D20   D(15,4,5,16)           -0.008          estimate D2E/DX2                !
 ! D21   D(4,5,6,1)             -0.0067         estimate D2E/DX2                !
 ! D22   D(16,5,6,1)          -179.9955         estimate D2E/DX2                !
 ! D23   D(3,7,8,9)              0.0            estimate D2E/DX2                !
 ! D24   D(3,7,8,10)           179.9978         estimate D2E/DX2                !
 ! D25   D(7,8,10,11)          -60.0269         estimate D2E/DX2                !
 ! D26   D(7,8,10,12)           59.9731         estimate D2E/DX2                !
 ! D27   D(7,8,10,13)          179.9731         estimate D2E/DX2                !
 ! D28   D(9,8,10,11)          119.9709         estimate D2E/DX2                !
 ! D29   D(9,8,10,12)         -120.0291         estimate D2E/DX2                !
 ! D30   D(9,8,10,13)           -0.0291         estimate D2E/DX2                !
 --------------------------------------------------------------------------------
 Trust Radius=3.00D-01 FncErr=5.00D-06 GrdErr=5.00D-06 EigMax=2.50D+02 EigMin=1.00D-04
 Number of steps in this run=     83 maximum allowed number of steps=    102.
 GradGradGradGradGradGradGradGradGradGradGradGradGradGradGradGradGradGrad

 Leave Link  103 at Tue Jul  2 22:22:12 2024, MaxMem=  8053063680 cpu:               0.1 elap:               0.0
 (Enter /share/apps/g16.b01_avx2/g16/l202.exe)
                          Input orientation:                          
 ---------------------------------------------------------------------
 Center     Atomic      Atomic             Coordinates (Angstroms)
 Number     Number       Type             X           Y           Z
 ---------------------------------------------------------------------
      1          6           0       -2.221041   -0.187281    0.000000
      2          6           0       -0.814163   -0.187281    0.000000
      3          6           0       -0.147472    1.039326    0.000000
      4          6           0       -0.901545    2.214113   -0.000241
      5          6           0       -2.304747    2.111308   -0.000382
      6          7           0       -2.964277    0.936357   -0.000197
      7          8           0        1.281591    1.091069   -0.001236
      8          6           0        1.759725    1.110071    1.346327
      9          8           0        1.000765    1.083798    2.310483
     10          6           0        3.290279    1.165638    1.507318
     11          1           0        3.729023    0.306462    1.044479
     12          1           0        3.665946    2.052624    1.041453
     13          1           0        3.539303    1.176437    2.547881
     14          9           0       -0.131760   -1.352110    0.000325
     15          9           0       -0.306113    3.425707   -0.000365
     16          9           0       -3.078761    3.217383   -0.000481
     17          9           0       -2.912241   -1.346911    0.000149
 ---------------------------------------------------------------------
                    Distance matrix (angstroms):
                    1          2          3          4          5
     1  C    0.000000
     2  C    1.406878   0.000000
     3  C    2.409202   1.396081   0.000000
     4  C    2.740030   2.402983   1.395977   0.000000
     5  C    2.300113   2.739590   2.408938   1.406963   0.000000
     6  N    1.347205   2.426016   2.818686   2.426422   1.347401
     7  O    3.728621   2.454866   1.430000   2.455058   3.728634
     8  C    4.397979   3.181292   2.335595   3.180332   4.397276
     9  O    4.163414   3.201241   2.580457   3.199351   4.162005
    10  C    5.871716   4.576990   3.755808   4.576398   5.871266
    11  H    6.061186   4.687777   4.081083   5.115929   6.384010
    12  H    6.384232   5.115972   4.080876   4.687556   6.061191
    13  H    6.444610   5.225332   4.483616   5.224063   6.443644
    14  F    2.392054   1.350000   2.391488   3.648358   4.088659
    15  F    4.089087   3.648534   2.391649   1.350000   2.392109
    16  F    3.511043   4.089027   3.651902   2.397253   1.350000
    17  F    1.350000   2.397222   3.652133   4.089473   3.511172
                    6          7          8          9         10
     6  N    0.000000
     7  O    4.248686   0.000000
     8  C    4.915232   1.430000   0.000000
     9  O    4.591573   2.328725   1.227317   0.000000
    10  C    6.437751   2.513190   1.540000   2.427683   0.000000
    11  H    6.803556   2.774716   2.148263   3.106510   1.070000
    12  H    6.803745   2.774335   2.148263   3.106807   1.070000
    13  H    6.989056   3.406251   2.148263   2.551297   1.070000
    14  F    3.641460   2.822532   3.384047   3.543035   4.507820
    15  F    3.641799   2.823356   3.382815   3.540126   4.507222
    16  F    2.283897   4.851173   5.446614   5.151240   6.859139
    17  F    2.283861   4.850977   5.447589   5.153408   6.859717
                   11         12         13         14         15
    11  H    0.000000
    12  H    1.747303   0.000000
    13  H    1.747303   1.747303   0.000000
    14  F    4.329754   5.205644   5.134229   0.000000
    15  F    5.206122   4.329895   5.132251   4.780997   0.000000
    16  F    7.477387   6.923392   7.379592   5.437378   2.780463
    17  F    6.923197   7.477546   7.381101   2.780486   5.437811
                   16         17
    16  F    0.000000
    17  F    4.567331   0.000000
 Stoichiometry    C7H3F4NO2
 Framework group  C1[X(C7H3F4NO2)]
 Deg. of freedom    45
 Full point group                 C1      NOp   1
 Largest Abelian subgroup         C1      NOp   1
 Largest concise Abelian subgroup C1      NOp   1
                         Standard orientation:                         
 ---------------------------------------------------------------------
 Center     Atomic      Atomic             Coordinates (Angstroms)
 Number     Number       Type             X           Y           Z
 ---------------------------------------------------------------------
      1          6           0       -1.753827   -1.149645    0.074103
      2          6           0       -0.396781   -1.201568   -0.293368
      3          6           0        0.290028   -0.000402   -0.479205
      4          6           0       -0.395514    1.201415   -0.293681
      5          6           0       -1.752717    1.150467    0.073675
      6          7           0       -2.430728    0.000657    0.257327
      7          8           0        1.669995   -0.001435   -0.854158
      8          6           0        2.484084   -0.000244    0.321494
      9          8           0        2.003073    0.001403    1.450623
     10          6           0        4.004485   -0.001220    0.076583
     11          1           0        4.276084   -0.875951   -0.476571
     12          1           0        4.276706    0.871349   -0.479671
     13          1           0        4.517047    0.000264    1.015827
     14          9           0        0.220006   -2.390789   -0.460186
     15          9           0        0.221992    2.390208   -0.460882
     16          9           0       -2.459906    2.284355    0.265200
     17          9           0       -2.461850   -2.282976    0.265847
 ---------------------------------------------------------------------
 Rotational constants (GHZ):           0.9222748           0.5683302           0.3864639
 Leave Link  202 at Tue Jul  2 22:22:12 2024, MaxMem=  8053063680 cpu:               0.0 elap:               0.0
 (Enter /share/apps/g16.b01_avx2/g16/l301.exe)
 Standard basis: def2TZVP (5D, 7F)
 Ernie: Thresh=  0.10000D-02 Tol=  0.10000D-05 Strict=F.
 There are   522 symmetry adapted cartesian basis functions of A   symmetry.
 There are   452 symmetry adapted basis functions of A   symmetry.
   452 basis functions,   738 primitive gaussians,   522 cartesian basis functions
    52 alpha electrons       52 beta electrons
       nuclear repulsion energy       920.7015616259 Hartrees.
 IExCor= 1009 DFT=T Ex+Corr=PBE1PBE ExCW=0 ScaHFX=  0.250000
 ScaDFX=  0.750000  0.750000  1.000000  1.000000 ScalE2=  1.000000  1.000000
 IRadAn=  99590 IRanWt=     -1 IRanGd=            0 ICorTp=0 IEmpDi=131
 NAtoms=   17 NActive=   17 NUniq=   17 SFac= 1.00D+00 NAtFMM=   60 NAOKFM=F Big=F
 Integral buffers will be    131072 words long.
 Raffenetti 2 integral format.
 Two-electron integral symmetry is turned on.
 R6Disp:  Grimme-D3 Dispersion energy=       -0.0081977099 Hartrees.
 Nuclear repulsion after empirical dispersion term =      920.6933639161 Hartrees.
 ------------------------------------------------------------------------------
 Polarizable Continuum Model (PCM)
 =================================
 Model                : PCM.
 Atomic radii         : UFF (Universal Force Field).
 Polarization charges : Total charges.
 Charge compensation  : None.
 Solution method      : On-the-fly selection.
 Cavity type          : Scaled VdW (van der Waals Surface) (Alpha=1.100).
 Cavity algorithm     : GePol (No added spheres)
                        Default sphere list used, NSphG=   17.
                        Lebedev-Laikov grids with approx.  5.0 points / Ang**2.
                        Smoothing algorithm: York/Karplus (Gamma=1.0000).
                        Polarization charges: spherical gaussians, with
                                              point-specific exponents (IZeta= 3).
                        Self-potential: point-specific (ISelfS= 7).
                        Self-field    : sphere-specific E.n sum rule (ISelfD= 2).
 1st derivatives      : Analytical E(r).r(x)/FMM algorithm (CHGder, D1EAlg=3).
                        Cavity 1st derivative terms included.
 Solvent              : Water, Eps=  78.355300 Eps(inf)=   1.777849
 ------------------------------------------------------------------------------
 Spheres list:
 ISph  on   Nord     Re0    Alpha      Xe            Ye            Ze
    1   C      1    1.9255  1.100     -1.753827     -1.149645      0.074103
    2   C      2    1.9255  1.100     -0.396781     -1.201568     -0.293368
    3   C      3    1.9255  1.100      0.290028     -0.000402     -0.479205
    4   C      4    1.9255  1.100     -0.395514      1.201415     -0.293681
    5   C      5    1.9255  1.100     -1.752717      1.150467      0.073675
    6   N      6    1.8300  1.100     -2.430728      0.000657      0.257327
    7   O      7    1.7500  1.100      1.669995     -0.001435     -0.854158
    8   C      8    1.9255  1.100      2.484084     -0.000244      0.321494
    9   O      9    1.7500  1.100      2.003073      0.001403      1.450623
   10   C     10    1.9255  1.100      4.004485     -0.001220      0.076583
   11   H     11    1.4430  1.100      4.276084     -0.875951     -0.476571
   12   H     12    1.4430  1.100      4.276706      0.871349     -0.479671
   13   H     13    1.4430  1.100      4.517047      0.000264      1.015827
   14   F     14    1.6820  1.100      0.220006     -2.390789     -0.460186
   15   F     15    1.6820  1.100      0.221992      2.390208     -0.460882
   16   F     16    1.6820  1.100     -2.459906      2.284355      0.265200
   17   F     17    1.6820  1.100     -2.461850     -2.282976      0.265847
 ------------------------------------------------------------------------------
 GePol: Number of generator spheres                  =      17
 GePol: Total number of spheres                      =      17
 GePol: Number of exposed spheres                    =      17 (100.00%)
 GePol: Number of points                             =    1795
 GePol: Average weight of points                     =       0.13
 GePol: Minimum weight of points                     =   0.43D-09
 GePol: Maximum weight of points                     =    0.20577
 GePol: Number of points with low weight             =      85
 GePol: Fraction of low-weight points (<1% of avg)   =       4.74%
 GePol: Cavity surface area                          =    227.613 Ang**2
 GePol: Cavity volume                                =    226.152 Ang**3
 Leave Link  301 at Tue Jul  2 22:22:12 2024, MaxMem=  8053063680 cpu:               0.4 elap:               0.0
 (Enter /share/apps/g16.b01_avx2/g16/l302.exe)
 NPDir=0 NMtPBC=     1 NCelOv=     1 NCel=       1 NClECP=     1 NCelD=      1
         NCelK=      1 NCelE2=     1 NClLst=     1 CellRange=     0.0.
 One-electron integrals computed using PRISM.
 One-electron integral symmetry used in STVInt
   1 Symmetry operations used in ECPInt.
 ECPInt:  NShTT=   13861 NPrTT=   44868 LenC2=   12634 LenP2D=   29848.
 LDataN:  DoStor=T MaxTD1= 6 Len=  172
 NBasis=   452 RedAO= T EigKep=  4.92D-05  NBF=   452
 NBsUse=   452 1.00D-06 EigRej= -1.00D+00 NBFU=   452
 Precomputing XC quadrature grid using
 IXCGrd= 4 IRadAn=       99590 IRanWt=          -1 IRanGd=           0 AccXCQ= 0.00D+00.
 Generated NRdTot=       0 NPtTot=           0 NUsed=           0 NTot=          32
 NSgBfM=   516   516   516   516   516 MxSgAt=    17 MxSgA2=    17.
 Leave Link  302 at Tue Jul  2 22:22:12 2024, MaxMem=  8053063680 cpu:               2.8 elap:               0.2
 (Enter /share/apps/g16.b01_avx2/g16/l303.exe)
 DipDrv:  MaxL=1.
 Leave Link  303 at Tue Jul  2 22:22:12 2024, MaxMem=  8053063680 cpu:               0.5 elap:               0.0
 (Enter /share/apps/g16.b01_avx2/g16/l401.exe)
 ExpMin= 9.52D-02 ExpMax= 3.55D+04 ExpMxC= 1.21D+03 IAcc=4 IRadAn=    199590 AccDes= 0.00D+00
 Harris functional with IExCor= 1009 and IRadAn=  199590 diagonalized for initial guess.
 HarFok:  IExCor= 1009 AccDes= 0.00D+00 IRadAn=    199590 IDoV= 1 UseB2=F ITyADJ=14
 ICtDFT=  3500011 ScaDFX=  1.000000  1.000000  1.000000  1.000000
 FoFCou: FMM=F IPFlag=           0 FMFlag=      100000 FMFlg1=           0
         NFxFlg=           0 DoJE=T BraDBF=F KetDBF=T FulRan=T
         wScrn=  0.000000 ICntrl=       500 IOpCl=  0 I1Cent=   200000004 NGrid=           0
         NMat0=    1 NMatS0=      1 NMatT0=    0 NMatD0=    1 NMtDS0=    0 NMtDT0=    0
 Petite list used in FoFCou.
 Harris En= -872.608888339308    
 JPrj=0 DoOrth=F DoCkMO=F.
 Leave Link  401 at Tue Jul  2 22:22:14 2024, MaxMem=  8053063680 cpu:              19.8 elap:               1.2
 (Enter /share/apps/g16.b01_avx2/g16/l502.exe)
 Integral symmetry usage will be decided dynamically.
 Closed shell SCF:
 Using DIIS extrapolation, IDIIS=  1040.
 NGot=  8053063680 LenX=  8052505917 LenY=  8052232911
 Requested convergence on RMS density matrix=1.00D-08 within 128 cycles.
 Requested convergence on MAX density matrix=1.00D-06.
 Requested convergence on             energy=1.00D-06.
 No special actions if energy rises.
 Fock matrices will be formed incrementally for  20 cycles.

 Cycle   1  Pass 1  IDiag  1:
 FoFJK:  IHMeth= 1 ICntrl=       0 DoSepK=F KAlg= 0 I1Cent=           0 FoldK=F
 IRaf= 860000000 NMat=       1 IRICut=       1 DoRegI=T DoRafI=F ISym2E= 0 IDoP0=0 IntGTp=1.
 FoFCou: FMM=F IPFlag=           0 FMFlag=      100000 FMFlg1=           0
         NFxFlg=           0 DoJE=F BraDBF=F KetDBF=F FulRan=T
         wScrn=  0.000000 ICntrl=         0 IOpCl=  0 I1Cent=           0 NGrid=           0
         NMat0=    1 NMatS0=      1 NMatT0=    0 NMatD0=    1 NMtDS0=    0 NMtDT0=    0
 Symmetry not used in FoFCou.
 Inv3:  Mode=1 IEnd=     9666075.
 Iteration    1 A*A^-1 deviation from unit magnitude is 3.44D-15 for   1116.
 Iteration    1 A*A^-1 deviation from orthogonality  is 1.64D-15 for   1316   1082.
 Iteration    1 A^-1*A deviation from unit magnitude is 2.89D-15 for    754.
 Iteration    1 A^-1*A deviation from orthogonality  is 1.93D-15 for   1376    209.
 E= -872.376140139297    
 DIIS: error= 2.89D-02 at cycle   1 NSaved=   1.
 NSaved= 1 IEnMin= 1 EnMin= -872.376140139297     IErMin= 1 ErrMin= 2.89D-02
 ErrMax= 2.89D-02  0.00D+00 EMaxC= 1.00D-01 BMatC= 2.72D-01 BMatP= 2.72D-01
 IDIUse=3 WtCom= 7.11D-01 WtEn= 2.89D-01
 Coeff-Com:  0.100D+01
 Coeff-En:   0.100D+01
 Coeff:      0.100D+01
 Gap=     0.234 Goal=   None    Shift=    0.000
 GapD=    0.234 DampG=1.000 DampE=0.500 DampFc=0.5000 IDamp=-1.
 Damping current iteration by 5.00D-01
 RMSDP=1.65D-03 MaxDP=1.05D-01              OVMax= 2.49D-01

 Cycle   2  Pass 1  IDiag  1:
 RMSU=  8.23D-04    CP:  9.92D-01
 E= -872.430377972478     Delta-E=       -0.054237833181 Rises=F Damp=T
 DIIS: error= 7.97D-03 at cycle   2 NSaved=   2.
 NSaved= 2 IEnMin= 2 EnMin= -872.430377972478     IErMin= 2 ErrMin= 7.97D-03
 ErrMax= 7.97D-03  0.00D+00 EMaxC= 1.00D-01 BMatC= 4.03D-02 BMatP= 2.72D-01
 IDIUse=3 WtCom= 9.20D-01 WtEn= 7.97D-02
 Coeff-Com:  0.157D+00 0.843D+00
 Coeff-En:   0.312D+00 0.688D+00
 Coeff:      0.170D+00 0.830D+00
 Gap=     0.273 Goal=   None    Shift=    0.000
 RMSDP=6.48D-04 MaxDP=4.00D-02 DE=-5.42D-02 OVMax= 1.64D-01

 Cycle   3  Pass 1  IDiag  1:
 RMSU=  6.14D-04    CP:  9.81D-01  7.76D-01
 E= -872.529256455851     Delta-E=       -0.098878483373 Rises=F Damp=F
 DIIS: error= 9.98D-03 at cycle   3 NSaved=   3.
 NSaved= 3 IEnMin= 3 EnMin= -872.529256455851     IErMin= 2 ErrMin= 7.97D-03
 ErrMax= 9.98D-03  0.00D+00 EMaxC= 1.00D-01 BMatC= 3.49D-02 BMatP= 4.03D-02
 IDIUse=3 WtCom= 9.00D-01 WtEn= 9.98D-02
 Coeff-Com: -0.156D-01 0.482D+00 0.534D+00
 Coeff-En:   0.000D+00 0.000D+00 0.100D+01
 Coeff:     -0.140D-01 0.434D+00 0.580D+00
 Gap=     0.219 Goal=   None    Shift=    0.000
 RMSDP=3.54D-04 MaxDP=2.72D-02 DE=-9.89D-02 OVMax= 8.16D-02

 Cycle   4  Pass 1  IDiag  1:
 RMSU=  3.03D-04    CP:  9.79D-01  8.97D-01  7.52D-01
 E= -872.550608783241     Delta-E=       -0.021352327390 Rises=F Damp=F
 DIIS: error= 4.23D-03 at cycle   4 NSaved=   4.
 NSaved= 4 IEnMin= 4 EnMin= -872.550608783241     IErMin= 4 ErrMin= 4.23D-03
 ErrMax= 4.23D-03  0.00D+00 EMaxC= 1.00D-01 BMatC= 7.29D-03 BMatP= 3.49D-02
 IDIUse=3 WtCom= 9.58D-01 WtEn= 4.23D-02
 Coeff-Com: -0.251D-01 0.114D+00 0.347D+00 0.564D+00
 Coeff-En:   0.000D+00 0.000D+00 0.194D+00 0.806D+00
 Coeff:     -0.241D-01 0.109D+00 0.341D+00 0.574D+00
 Gap=     0.222 Goal=   None    Shift=    0.000
 RMSDP=1.26D-04 MaxDP=7.77D-03 DE=-2.14D-02 OVMax= 2.57D-02

 Cycle   5  Pass 1  IDiag  1:
 RMSU=  5.91D-05    CP:  9.79D-01  8.67D-01  8.47D-01  6.98D-01
 E= -872.555741142217     Delta-E=       -0.005132358977 Rises=F Damp=F
 DIIS: error= 6.60D-04 at cycle   5 NSaved=   5.
 NSaved= 5 IEnMin= 5 EnMin= -872.555741142217     IErMin= 5 ErrMin= 6.60D-04
 ErrMax= 6.60D-04  0.00D+00 EMaxC= 1.00D-01 BMatC= 4.38D-04 BMatP= 7.29D-03
 IDIUse=3 WtCom= 9.93D-01 WtEn= 6.60D-03
 Coeff-Com: -0.113D-01 0.302D-01 0.152D+00 0.322D+00 0.507D+00
 Coeff-En:   0.000D+00 0.000D+00 0.000D+00 0.000D+00 0.100D+01
 Coeff:     -0.112D-01 0.300D-01 0.151D+00 0.320D+00 0.510D+00
 Gap=     0.221 Goal=   None    Shift=    0.000
 RMSDP=3.08D-05 MaxDP=1.89D-03 DE=-5.13D-03 OVMax= 4.43D-03

 Cycle   6  Pass 1  IDiag  1:
 RMSU=  1.87D-05    CP:  9.79D-01  8.72D-01  8.44D-01  7.33D-01  6.36D-01
 E= -872.556064471372     Delta-E=       -0.000323329154 Rises=F Damp=F
 DIIS: error= 2.17D-04 at cycle   6 NSaved=   6.
 NSaved= 6 IEnMin= 6 EnMin= -872.556064471372     IErMin= 6 ErrMin= 2.17D-04
 ErrMax= 2.17D-04  0.00D+00 EMaxC= 1.00D-01 BMatC= 2.35D-05 BMatP= 4.38D-04
 IDIUse=3 WtCom= 9.98D-01 WtEn= 2.17D-03
 Coeff-Com: -0.373D-02 0.537D-02 0.450D-01 0.107D+00 0.254D+00 0.592D+00
 Coeff-En:   0.000D+00 0.000D+00 0.000D+00 0.000D+00 0.000D+00 0.100D+01
 Coeff:     -0.372D-02 0.535D-02 0.449D-01 0.107D+00 0.254D+00 0.593D+00
 Gap=     0.221 Goal=   None    Shift=    0.000
 RMSDP=8.54D-06 MaxDP=4.79D-04 DE=-3.23D-04 OVMax= 9.43D-04

 Cycle   7  Pass 1  IDiag  1:
 RMSU=  5.91D-06    CP:  9.79D-01  8.74D-01  8.43D-01  7.25D-01  6.51D-01
                    CP:  7.14D-01
 E= -872.556080809179     Delta-E=       -0.000016337807 Rises=F Damp=F
 DIIS: error= 7.29D-05 at cycle   7 NSaved=   7.
 NSaved= 7 IEnMin= 7 EnMin= -872.556080809179     IErMin= 7 ErrMin= 7.29D-05
 ErrMax= 7.29D-05  0.00D+00 EMaxC= 1.00D-01 BMatC= 1.57D-06 BMatP= 2.35D-05
 IDIUse=1 WtCom= 1.00D+00 WtEn= 0.00D+00
 Coeff-Com: -0.985D-03 0.621D-03 0.108D-01 0.272D-01 0.876D-01 0.275D+00
 Coeff-Com:  0.600D+00
 Coeff:     -0.985D-03 0.621D-03 0.108D-01 0.272D-01 0.876D-01 0.275D+00
 Coeff:      0.600D+00
 Gap=     0.221 Goal=   None    Shift=    0.000
 RMSDP=2.80D-06 MaxDP=1.10D-04 DE=-1.63D-05 OVMax= 5.65D-04

 Cycle   8  Pass 1  IDiag  1:
 RMSU=  2.18D-06    CP:  9.79D-01  8.73D-01  8.43D-01  7.25D-01  6.59D-01
                    CP:  7.73D-01  8.10D-01
 E= -872.556081959030     Delta-E=       -0.000001149851 Rises=F Damp=F
 DIIS: error= 2.60D-05 at cycle   8 NSaved=   8.
 NSaved= 8 IEnMin= 8 EnMin= -872.556081959030     IErMin= 8 ErrMin= 2.60D-05
 ErrMax= 2.60D-05  0.00D+00 EMaxC= 1.00D-01 BMatC= 2.85D-07 BMatP= 1.57D-06
 IDIUse=1 WtCom= 1.00D+00 WtEn= 0.00D+00
 Coeff-Com: -0.877D-04-0.300D-03 0.417D-03 0.119D-02 0.171D-01 0.724D-01
 Coeff-Com:  0.328D+00 0.581D+00
 Coeff:     -0.877D-04-0.300D-03 0.417D-03 0.119D-02 0.171D-01 0.724D-01
 Coeff:      0.328D+00 0.581D+00
 Gap=     0.221 Goal=   None    Shift=    0.000
 RMSDP=1.15D-06 MaxDP=5.78D-05 DE=-1.15D-06 OVMax= 2.18D-04

 Cycle   9  Pass 1  IDiag  1:
 RMSU=  6.60D-07    CP:  9.79D-01  8.73D-01  8.43D-01  7.26D-01  6.63D-01
                    CP:  7.68D-01  8.54D-01  6.71D-01
 E= -872.556082198721     Delta-E=       -0.000000239690 Rises=F Damp=F
 DIIS: error= 5.26D-06 at cycle   9 NSaved=   9.
 NSaved= 9 IEnMin= 9 EnMin= -872.556082198721     IErMin= 9 ErrMin= 5.26D-06
 ErrMax= 5.26D-06  0.00D+00 EMaxC= 1.00D-01 BMatC= 2.55D-08 BMatP= 2.85D-07
 IDIUse=1 WtCom= 1.00D+00 WtEn= 0.00D+00
 Coeff-Com:  0.697D-04-0.216D-03-0.936D-03-0.250D-02-0.195D-02 0.853D-03
 Coeff-Com:  0.816D-01 0.282D+00 0.641D+00
 Coeff:      0.697D-04-0.216D-03-0.936D-03-0.250D-02-0.195D-02 0.853D-03
 Coeff:      0.816D-01 0.282D+00 0.641D+00
 Gap=     0.221 Goal=   None    Shift=    0.000
 RMSDP=4.03D-07 MaxDP=2.01D-05 DE=-2.40D-07 OVMax= 6.48D-05

 Cycle  10  Pass 1  IDiag  1:
 RMSU=  1.91D-07    CP:  9.79D-01  8.73D-01  8.43D-01  7.26D-01  6.63D-01
                    CP:  7.73D-01  8.68D-01  7.67D-01  6.97D-01
 E= -872.556082218770     Delta-E=       -0.000000020050 Rises=F Damp=F
 DIIS: error= 2.39D-06 at cycle  10 NSaved=  10.
 NSaved=10 IEnMin=10 EnMin= -872.556082218770     IErMin=10 ErrMin= 2.39D-06
 ErrMax= 2.39D-06  0.00D+00 EMaxC= 1.00D-01 BMatC= 3.05D-09 BMatP= 2.55D-08
 IDIUse=1 WtCom= 1.00D+00 WtEn= 0.00D+00
 Coeff-Com:  0.401D-04-0.961D-04-0.457D-03-0.125D-02-0.173D-02-0.323D-02
 Coeff-Com:  0.237D-01 0.115D+00 0.350D+00 0.518D+00
 Coeff:      0.401D-04-0.961D-04-0.457D-03-0.125D-02-0.173D-02-0.323D-02
 Coeff:      0.237D-01 0.115D+00 0.350D+00 0.518D+00
 Gap=     0.221 Goal=   None    Shift=    0.000
 RMSDP=9.91D-08 MaxDP=6.61D-06 DE=-2.00D-08 OVMax= 1.58D-05

 Cycle  11  Pass 1  IDiag  1:
 RMSU=  5.79D-08    CP:  9.79D-01  8.73D-01  8.43D-01  7.26D-01  6.63D-01
                    CP:  7.73D-01  8.71D-01  7.70D-01  7.55D-01  6.49D-01
 E= -872.556082221127     Delta-E=       -0.000000002357 Rises=F Damp=F
 DIIS: error= 4.41D-07 at cycle  11 NSaved=  11.
 NSaved=11 IEnMin=11 EnMin= -872.556082221127     IErMin=11 ErrMin= 4.41D-07
 ErrMax= 4.41D-07  0.00D+00 EMaxC= 1.00D-01 BMatC= 1.55D-10 BMatP= 3.05D-09
 IDIUse=1 WtCom= 1.00D+00 WtEn= 0.00D+00
 Coeff-Com:  0.861D-05-0.129D-04-0.644D-04-0.185D-03-0.552D-03-0.176D-02
 Coeff-Com: -0.342D-02 0.154D-02 0.350D-01 0.194D+00 0.775D+00
 Coeff:      0.861D-05-0.129D-04-0.644D-04-0.185D-03-0.552D-03-0.176D-02
 Coeff:     -0.342D-02 0.154D-02 0.350D-01 0.194D+00 0.775D+00
 Gap=     0.221 Goal=   None    Shift=    0.000
 RMSDP=3.28D-08 MaxDP=1.12D-06 DE=-2.36D-09 OVMax= 3.32D-06

 Cycle  12  Pass 1  IDiag  1:
 RMSU=  2.26D-08    CP:  9.79D-01  8.73D-01  8.43D-01  7.26D-01  6.63D-01
                    CP:  7.73D-01  8.72D-01  7.75D-01  7.75D-01  7.01D-01
                    CP:  9.30D-01
 E= -872.556082221245     Delta-E=       -0.000000000118 Rises=F Damp=F
 DIIS: error= 2.05D-07 at cycle  12 NSaved=  12.
 NSaved=12 IEnMin=12 EnMin= -872.556082221245     IErMin=12 ErrMin= 2.05D-07
 ErrMax= 2.05D-07  0.00D+00 EMaxC= 1.00D-01 BMatC= 2.51D-11 BMatP= 1.55D-10
 IDIUse=1 WtCom= 1.00D+00 WtEn= 0.00D+00
 Coeff-Com:  0.701D-06 0.131D-05 0.159D-04 0.314D-04-0.808D-04-0.472D-03
 Coeff-Com: -0.360D-02-0.917D-02-0.133D-01 0.573D-01 0.392D+00 0.577D+00
 Coeff:      0.701D-06 0.131D-05 0.159D-04 0.314D-04-0.808D-04-0.472D-03
 Coeff:     -0.360D-02-0.917D-02-0.133D-01 0.573D-01 0.392D+00 0.577D+00
 Gap=     0.221 Goal=   None    Shift=    0.000
 RMSDP=1.11D-08 MaxDP=4.99D-07 DE=-1.18D-10 OVMax= 1.54D-06

 Cycle  13  Pass 1  IDiag  1:
 RMSU=  5.26D-09    CP:  9.79D-01  8.73D-01  8.43D-01  7.26D-01  6.63D-01
                    CP:  7.73D-01  8.72D-01  7.75D-01  7.71D-01  7.18D-01
                    CP:  9.64D-01  6.75D-01
 E= -872.556082221273     Delta-E=       -0.000000000028 Rises=F Damp=F
 DIIS: error= 3.01D-08 at cycle  13 NSaved=  13.
 NSaved=13 IEnMin=13 EnMin= -872.556082221273     IErMin=13 ErrMin= 3.01D-08
 ErrMax= 3.01D-08  0.00D+00 EMaxC= 1.00D-01 BMatC= 9.51D-13 BMatP= 2.51D-11
 IDIUse=1 WtCom= 1.00D+00 WtEn= 0.00D+00
 Coeff-Com: -0.639D-07 0.944D-06 0.976D-05 0.197D-04-0.520D-05-0.792D-04
 Coeff-Com: -0.109D-02-0.351D-02-0.743D-02 0.975D-02 0.957D-01 0.207D+00
 Coeff-Com:  0.700D+00
 Coeff:     -0.639D-07 0.944D-06 0.976D-05 0.197D-04-0.520D-05-0.792D-04
 Coeff:     -0.109D-02-0.351D-02-0.743D-02 0.975D-02 0.957D-01 0.207D+00
 Coeff:      0.700D+00
 Gap=     0.221 Goal=   None    Shift=    0.000
 RMSDP=2.61D-09 MaxDP=1.42D-07 DE=-2.83D-11 OVMax= 3.35D-07

 Error on total polarization charges =  0.00828
 SCF Done:  E(RPBE1PBE) =  -872.556082221     A.U. after   13 cycles
            NFock= 13  Conv=0.26D-08     -V/T= 2.0049
 KE= 8.683398116652D+02 PE=-3.898934100165D+03 EE= 1.237344842362D+03
 Leave Link  502 at Tue Jul  2 22:22:53 2024, MaxMem=  8053063680 cpu:             629.5 elap:              39.5
 (Enter /share/apps/g16.b01_avx2/g16/l601.exe)
 Copying SCF densities to generalized density rwf, IOpCl= 0 IROHF=0.

 **********************************************************************

            Population analysis using the SCF Density.

 **********************************************************************

 Orbital symmetries:
       Occupied  (A) (A) (A) (A) (A) (A) (A) (A) (A) (A) (A) (A)
                 (A) (A) (A) (A) (A) (A) (A) (A) (A) (A) (A) (A)
                 (A) (A) (A) (A) (A) (A) (A) (A) (A) (A) (A) (A)
                 (A) (A) (A) (A) (A) (A) (A) (A) (A) (A) (A) (A)
                 (A) (A) (A) (A)
       Virtual   (A) (A) (A) (A) (A) (A) (A) (A) (A) (A) (A) (A)
                 (A) (A) (A) (A) (A) (A) (A) (A) (A) (A) (A) (A)
                 (A) (A) (A) (A) (A) (A) (A) (A) (A) (A) (A) (A)
                 (A) (A) (A) (A) (A) (A) (A) (A) (A) (A) (A) (A)
                 (A) (A) (A) (A) (A) (A) (A) (A) (A) (A) (A) (A)
                 (A) (A) (A) (A) (A) (A) (A) (A) (A) (A) (A) (A)
                 (A) (A) (A) (A) (A) (A) (A) (A) (A) (A) (A) (A)
                 (A) (A) (A) (A) (A) (A) (A) (A) (A) (A) (A) (A)
                 (A) (A) (A) (A) (A) (A) (A) (A) (A) (A) (A) (A)
                 (A) (A) (A) (A) (A) (A) (A) (A) (A) (A) (A) (A)
                 (A) (A) (A) (A) (A) (A) (A) (A) (A) (A) (A) (A)
                 (A) (A) (A) (A) (A) (A) (A) (A) (A) (A) (A) (A)
                 (A) (A) (A) (A) (A) (A) (A) (A) (A) (A) (A) (A)
                 (A) (A) (A) (A) (A) (A) (A) (A) (A) (A) (A) (A)
                 (A) (A) (A) (A) (A) (A) (A) (A) (A) (A) (A) (A)
                 (A) (A) (A) (A) (A) (A) (A) (A) (A) (A) (A) (A)
                 (A) (A) (A) (A) (A) (A) (A) (A) (A) (A) (A) (A)
                 (A) (A) (A) (A) (A) (A) (A) (A) (A) (A) (A) (A)
                 (A) (A) (A) (A) (A) (A) (A) (A) (A) (A) (A) (A)
                 (A) (A) (A) (A) (A) (A) (A) (A) (A) (A) (A) (A)
                 (A) (A) (A) (A) (A) (A) (A) (A) (A) (A) (A) (A)
                 (A) (A) (A) (A) (A) (A) (A) (A) (A) (A) (A) (A)
                 (A) (A) (A) (A) (A) (A) (A) (A) (A) (A) (A) (A)
                 (A) (A) (A) (A) (A) (A) (A) (A) (A) (A) (A) (A)
                 (A) (A) (A) (A) (A) (A) (A) (A) (A) (A) (A) (A)
                 (A) (A) (A) (A) (A) (A) (A) (A) (A) (A) (A) (A)
                 (A) (A) (A) (A) (A) (A) (A) (A) (A) (A) (A) (A)
                 (A) (A) (A) (A) (A) (A) (A) (A) (A) (A) (A) (A)
                 (A) (A) (A) (A) (A) (A) (A) (A) (A) (A) (A) (A)
                 (A) (A) (A) (A) (A) (A) (A) (A) (A) (A) (A) (A)
                 (A) (A) (A) (A) (A) (A) (A) (A) (A) (A) (A) (A)
                 (A) (A) (A) (A) (A) (A) (A) (A) (A) (A) (A) (A)
                 (A) (A) (A) (A) (A) (A) (A) (A) (A) (A) (A) (A)
                 (A) (A) (A) (A)
 The electronic state is 1-A.
 Alpha  occ. eigenvalues --  -24.82470 -24.82467 -24.82179 -24.82179 -19.30545
 Alpha  occ. eigenvalues --  -19.23133 -14.44462 -10.39652 -10.39181 -10.39178
 Alpha  occ. eigenvalues --  -10.36649 -10.36647 -10.35793 -10.24226  -1.30373
 Alpha  occ. eigenvalues --   -1.30238  -1.29161  -1.29072  -1.15731  -1.07709
 Alpha  occ. eigenvalues --   -1.02106  -0.88149  -0.82573  -0.79138  -0.72123
 Alpha  occ. eigenvalues --   -0.71391  -0.65065  -0.63347  -0.61887  -0.60220
 Alpha  occ. eigenvalues --   -0.58188  -0.55959  -0.55725  -0.53563  -0.53039
 Alpha  occ. eigenvalues --   -0.52653  -0.50607  -0.50408  -0.49194  -0.48299
 Alpha  occ. eigenvalues --   -0.47083  -0.46123  -0.44240  -0.44089  -0.43841
 Alpha  occ. eigenvalues --   -0.41801  -0.41328  -0.36870  -0.35849  -0.33184
 Alpha  occ. eigenvalues --   -0.32499  -0.28895
 Alpha virt. eigenvalues --   -0.06761  -0.03606  -0.02778  -0.00564   0.05715
 Alpha virt. eigenvalues --    0.06241   0.08617   0.10965   0.11395   0.12865
 Alpha virt. eigenvalues --    0.12971   0.14703   0.15418   0.16101   0.16163
 Alpha virt. eigenvalues --    0.18706   0.18908   0.19872   0.21701   0.21885
 Alpha virt. eigenvalues --    0.23376   0.23772   0.24474   0.24912   0.25197
 Alpha virt. eigenvalues --    0.27214   0.28223   0.29190   0.30410   0.31501
 Alpha virt. eigenvalues --    0.31562   0.32675   0.33677   0.34896   0.35789
 Alpha virt. eigenvalues --    0.36707   0.37769   0.38850   0.39548   0.40087
 Alpha virt. eigenvalues --    0.40767   0.40981   0.42342   0.43857   0.44642
 Alpha virt. eigenvalues --    0.46115   0.46679   0.47394   0.47784   0.49738
 Alpha virt. eigenvalues --    0.52049   0.53757   0.54226   0.55756   0.57741
 Alpha virt. eigenvalues --    0.57820   0.58745   0.59885   0.60280   0.61246
 Alpha virt. eigenvalues --    0.61723   0.62813   0.64274   0.65455   0.66635
 Alpha virt. eigenvalues --    0.66783   0.67597   0.71337   0.71858   0.73914
 Alpha virt. eigenvalues --    0.75046   0.75802   0.77146   0.77406   0.78830
 Alpha virt. eigenvalues --    0.80479   0.82749   0.83952   0.84376   0.84681
 Alpha virt. eigenvalues --    0.85834   0.86644   0.88580   0.89094   0.89204
 Alpha virt. eigenvalues --    0.91505   0.92826   0.94563   0.95187   0.97767
 Alpha virt. eigenvalues --    0.99729   1.00250   1.01459   1.03343   1.06120
 Alpha virt. eigenvalues --    1.07089   1.08906   1.10204   1.11336   1.12388
 Alpha virt. eigenvalues --    1.14065   1.15888   1.21239   1.21338   1.25347
 Alpha virt. eigenvalues --    1.26090   1.26923   1.29156   1.31937   1.34561
 Alpha virt. eigenvalues --    1.37060   1.39777   1.41088   1.41651   1.41825
 Alpha virt. eigenvalues --    1.43834   1.45450   1.47042   1.47687   1.50457
 Alpha virt. eigenvalues --    1.50755   1.53291   1.55765   1.56155   1.58312
 Alpha virt. eigenvalues --    1.58778   1.60939   1.60946   1.63560   1.66689
 Alpha virt. eigenvalues --    1.68949   1.70118   1.72213   1.72830   1.75258
 Alpha virt. eigenvalues --    1.77683   1.81068   1.81477   1.84542   1.84783
 Alpha virt. eigenvalues --    1.87504   1.88155   1.90632   1.93469   1.94207
 Alpha virt. eigenvalues --    1.95256   1.97013   1.99502   2.00084   2.00284
 Alpha virt. eigenvalues --    2.02302   2.04509   2.05804   2.06929   2.10480
 Alpha virt. eigenvalues --    2.11493   2.12821   2.15121   2.15428   2.16645
 Alpha virt. eigenvalues --    2.17581   2.20125   2.22558   2.23704   2.24832
 Alpha virt. eigenvalues --    2.25748   2.28160   2.29068   2.32444   2.35490
 Alpha virt. eigenvalues --    2.35896   2.38643   2.39592   2.42984   2.44879
 Alpha virt. eigenvalues --    2.46344   2.46360   2.49365   2.51031   2.51768
 Alpha virt. eigenvalues --    2.53663   2.55956   2.57033   2.58373   2.59184
 Alpha virt. eigenvalues --    2.62643   2.64557   2.68536   2.69058   2.69665
 Alpha virt. eigenvalues --    2.73730   2.75279   2.76354   2.76783   2.77699
 Alpha virt. eigenvalues --    2.78899   2.81110   2.82987   2.84985   2.86327
 Alpha virt. eigenvalues --    2.87479   2.87780   2.90731   2.94267   2.94468
 Alpha virt. eigenvalues --    2.95217   2.96439   2.97187   2.98437   2.98850
 Alpha virt. eigenvalues --    3.00695   3.01080   3.03018   3.03672   3.06165
 Alpha virt. eigenvalues --    3.06554   3.07014   3.08035   3.10746   3.11124
 Alpha virt. eigenvalues --    3.13123   3.14215   3.14725   3.15868   3.16360
 Alpha virt. eigenvalues --    3.19880   3.20099   3.20881   3.20981   3.22928
 Alpha virt. eigenvalues --    3.23078   3.26456   3.28017   3.28249   3.28699
 Alpha virt. eigenvalues --    3.29218   3.31848   3.35650   3.35836   3.39053
 Alpha virt. eigenvalues --    3.39772   3.40691   3.41832   3.42777   3.44168
 Alpha virt. eigenvalues --    3.48658   3.49896   3.51257   3.51811   3.54366
 Alpha virt. eigenvalues --    3.56437   3.58530   3.59061   3.60232   3.62939
 Alpha virt. eigenvalues --    3.69486   3.71064   3.71082   3.71949   3.76026
 Alpha virt. eigenvalues --    3.79127   3.79692   3.81712   3.87992   3.89526
 Alpha virt. eigenvalues --    3.91388   3.93813   3.93997   3.94973   3.98672
 Alpha virt. eigenvalues --    4.00590   4.03255   4.07733   4.08821   4.09696
 Alpha virt. eigenvalues --    4.11183   4.14150   4.14808   4.25046   4.25911
 Alpha virt. eigenvalues --    4.27958   4.29048   4.29838   4.32915   4.35315
 Alpha virt. eigenvalues --    4.36915   4.41055   4.41983   4.46595   4.47263
 Alpha virt. eigenvalues --    4.53319   4.63250   4.67247   4.70056   4.76603
 Alpha virt. eigenvalues --    4.80271   4.80543   4.81225   4.86058   4.91332
 Alpha virt. eigenvalues --    4.93387   5.02982   5.09510   5.13961   5.14000
 Alpha virt. eigenvalues --    5.14583   5.19079   5.21174   5.22368   5.25518
 Alpha virt. eigenvalues --    5.29453   5.40874   5.41236   5.45807   5.51092
 Alpha virt. eigenvalues --    5.56520   5.64333   5.65758   5.68448   5.75046
 Alpha virt. eigenvalues --    5.79473   5.85922   6.01143   6.01185   6.15630
 Alpha virt. eigenvalues --    6.20697   6.29831   6.37229   6.48068   6.58841
 Alpha virt. eigenvalues --    6.64165   6.74239   6.79566   6.84451   6.84574
 Alpha virt. eigenvalues --    6.84919   6.85133   6.85725   6.85774   6.85793
 Alpha virt. eigenvalues --    6.86373   6.92049   6.92292   6.92886   6.97756
 Alpha virt. eigenvalues --    6.98572   6.99886   7.00418   7.01969   7.06027
 Alpha virt. eigenvalues --    7.08807   7.09750   7.14041   7.14329   7.18292
 Alpha virt. eigenvalues --    7.25697   7.27132   7.28214   7.30708   7.30928
 Alpha virt. eigenvalues --    7.38484   7.43486   7.46488   7.48102   7.68398
 Alpha virt. eigenvalues --    7.86944   8.30680   8.31018   8.34842   8.37091
 Alpha virt. eigenvalues --    8.44507   8.47801   8.53669   8.59646   8.69283
 Alpha virt. eigenvalues --    8.69693   8.77356   8.79280   8.81480   8.85470
 Alpha virt. eigenvalues --    8.95827   8.96363   8.99259   8.99850   9.07096
 Alpha virt. eigenvalues --    9.11361  22.42258  22.44185  22.80998  22.83880
 Alpha virt. eigenvalues --   23.01751  23.03203  23.24417  32.51169  43.89934
 Alpha virt. eigenvalues --   44.31496  57.25436  57.32729  57.49045  57.49675
          Condensed to atoms (all electrons):
               1          2          3          4          5          6
     1  C    4.568163   0.424776  -0.018494  -0.027996  -0.051669   0.538036
     2  C    0.424776   5.025142   0.274445   0.052857  -0.028015  -0.113884
     3  C   -0.018494   0.274445   5.284476   0.274585  -0.018552   0.020792
     4  C   -0.027996   0.052857   0.274585   5.024733   0.424890  -0.113844
     5  C   -0.051669  -0.028015  -0.018552   0.424890   4.568194   0.537977
     6  N    0.538036  -0.113884   0.020792  -0.113844   0.537977   6.465290
     7  O    0.003510  -0.022792   0.259355  -0.022790   0.003502  -0.000004
     8  C    0.001190  -0.002689  -0.113830  -0.002772   0.001189   0.000041
     9  O   -0.001972   0.015761  -0.017102   0.015776  -0.001973  -0.000265
    10  C   -0.000079   0.000165  -0.005675   0.000169  -0.000079   0.000013
    11  H    0.000009  -0.000387   0.000393   0.000153   0.000001  -0.000000
    12  H    0.000001   0.000154   0.000395  -0.000386   0.000009  -0.000000
    13  H    0.000002  -0.000029   0.000027  -0.000030   0.000002   0.000000
    14  F   -0.033863   0.302249  -0.065554   0.004822   0.000081   0.003746
    15  F    0.000081   0.004823  -0.065511   0.302233  -0.033854   0.003742
    16  F   -0.002618  -0.000748   0.004843  -0.074375   0.358356  -0.070732
    17  F    0.358376  -0.074376   0.004837  -0.000748  -0.002619  -0.070726
               7          8          9         10         11         12
     1  C    0.003510   0.001190  -0.001972  -0.000079   0.000009   0.000001
     2  C   -0.022792  -0.002689   0.015761   0.000165  -0.000387   0.000154
     3  C    0.259355  -0.113830  -0.017102  -0.005675   0.000393   0.000395
     4  C   -0.022790  -0.002772   0.015776   0.000169   0.000153  -0.000386
     5  C    0.003502   0.001189  -0.001973  -0.000079   0.000001   0.000009
     6  N   -0.000004   0.000041  -0.000265   0.000013  -0.000000  -0.000000
     7  O    7.840826   0.300422  -0.083323  -0.056422   0.002985   0.002992
     8  C    0.300422   4.542113   0.619834   0.372483  -0.016990  -0.017024
     9  O   -0.083323   0.619834   7.873977  -0.069207   0.001836   0.001840
    10  C   -0.056422   0.372483  -0.069207   4.923008   0.384474   0.384489
    11  H    0.002985  -0.016990   0.001836   0.384474   0.493255  -0.016223
    12  H    0.002992  -0.017024   0.001840   0.384489  -0.016223   0.493278
    13  H    0.003395  -0.035434   0.003973   0.414442  -0.015985  -0.015991
    14  F    0.001014   0.007760  -0.000562  -0.000804   0.000178   0.000002
    15  F    0.001020   0.007772  -0.000566  -0.000805   0.000002   0.000178
    16  F   -0.000035   0.000000   0.000001   0.000000   0.000000  -0.000000
    17  F   -0.000035   0.000000   0.000001   0.000000  -0.000000   0.000000
              13         14         15         16         17
     1  C    0.000002  -0.033863   0.000081  -0.002618   0.358376
     2  C   -0.000029   0.302249   0.004823  -0.000748  -0.074376
     3  C    0.000027  -0.065554  -0.065511   0.004843   0.004837
     4  C   -0.000030   0.004822   0.302233  -0.074375  -0.000748
     5  C    0.000002   0.000081  -0.033854   0.358356  -0.002619
     6  N    0.000000   0.003746   0.003742  -0.070732  -0.070726
     7  O    0.003395   0.001014   0.001020  -0.000035  -0.000035
     8  C   -0.035434   0.007760   0.007772   0.000000   0.000000
     9  O    0.003973  -0.000562  -0.000566   0.000001   0.000001
    10  C    0.414442  -0.000804  -0.000805   0.000000   0.000000
    11  H   -0.015985   0.000178   0.000002   0.000000  -0.000000
    12  H   -0.015991   0.000002   0.000178  -0.000000   0.000000
    13  H    0.483693   0.000005   0.000005   0.000000   0.000000
    14  F    0.000005   8.945444  -0.000020   0.000001   0.002160
    15  F    0.000005  -0.000020   8.945382   0.002160   0.000001
    16  F    0.000000   0.000001   0.002160   8.938217  -0.000027
    17  F    0.000000   0.002160   0.000001  -0.000027   8.938207
 Mulliken charges:
               1
     1  C    0.242547
     2  C    0.142548
     3  C    0.180570
     4  C    0.142723
     5  C    0.242561
     6  N   -0.200182
     7  O   -0.233621
     8  C    0.335935
     9  O   -0.358029
    10  C   -0.346173
    11  H    0.166301
    12  H    0.166287
    13  H    0.161926
    14  F   -0.166659
    15  F   -0.166641
    16  F   -0.155043
    17  F   -0.155051
 Sum of Mulliken charges =  -0.00000
 Mulliken charges with hydrogens summed into heavy atoms:
               1
     1  C    0.242547
     2  C    0.142548
     3  C    0.180570
     4  C    0.142723
     5  C    0.242561
     6  N   -0.200182
     7  O   -0.233621
     8  C    0.335935
     9  O   -0.358029
    10  C    0.148341
    14  F   -0.166659
    15  F   -0.166641
    16  F   -0.155043
    17  F   -0.155051
 Electronic spatial extent (au):  <R**2>=           2666.2419
 Charge=             -0.0000 electrons
 Dipole moment (field-independent basis, Debye):
    X=              4.6242    Y=             -0.0035    Z=             -2.1201  Tot=              5.0871
 Quadrupole moment (field-independent basis, Debye-Ang):
   XX=            -67.3696   YY=            -80.6807   ZZ=            -78.5583
   XY=             -0.0079   XZ=             -0.5863   YZ=             -0.0072
 Traceless Quadrupole moment (field-independent basis, Debye-Ang):
   XX=              8.1666   YY=             -5.1445   ZZ=             -3.0221
   XY=             -0.0079   XZ=             -0.5863   YZ=             -0.0072
 Octapole moment (field-independent basis, Debye-Ang**2):
  XXX=             94.7660  YYY=             -0.0033  ZZZ=             -6.6887  XYY=              6.1446
  XXY=             -0.0344  XXZ=             -9.7043  XZZ=            -13.7984  YZZ=             -0.0019
  YYZ=              0.1164  XYZ=             -0.0143
 Hexadecapole moment (field-independent basis, Debye-Ang**3):
 XXXX=          -1726.2598 YYYY=           -934.5621 ZZZZ=           -210.2377 XXXY=             -0.0556
 XXXZ=              8.6057 YYYX=              0.0070 YYYZ=             -0.0051 ZZZX=            -16.9554
 ZZZY=             -0.0235 XXYY=           -483.0475 XXZZ=           -369.0405 YYZZ=           -178.0985
 XXYZ=             -0.0344 YYXZ=             -0.9050 ZZXY=              0.0148
 N-N= 9.206933639161D+02 E-N=-3.898934095650D+03  KE= 8.683398116652D+02
 No NMR shielding tensors so no spin-rotation constants.
 Leave Link  601 at Tue Jul  2 22:22:53 2024, MaxMem=  8053063680 cpu:               1.5 elap:               0.1
 (Enter /share/apps/g16.b01_avx2/g16/l701.exe)
 ... and contract with generalized density number  0.
 Compute integral first derivatives.
 R6Disp: Adding Grimme-D3 dispersion energy 1st derivatives to the gradient.
   1 Symmetry operations used in ECPInt.
 ECPInt:  NShTT=   13861 NPrTT=   44868 LenC2=   12634 LenP2D=   29848.
 LDataN:  DoStor=T MaxTD1= 7 Len=  274
 D1PCM: PCM CHGder 1st derivatives, ID1Alg=3 FixD1E=F DoIter=F DoCFld=F I1PDM=0.
 GePol: Maximum number of non-zero 1st derivatives   =     232
 Leave Link  701 at Tue Jul  2 22:22:54 2024, MaxMem=  8053063680 cpu:               9.7 elap:               0.6
 (Enter /share/apps/g16.b01_avx2/g16/l702.exe)
 L702 exits ... SP integral derivatives will be done elsewhere.
 Leave Link  702 at Tue Jul  2 22:22:54 2024, MaxMem=  8053063680 cpu:               0.2 elap:               0.0
 (Enter /share/apps/g16.b01_avx2/g16/l703.exe)
 Integral derivatives from FoFJK, PRISM(SPDF).
 Compute integral first derivatives, UseDBF=F ICtDFT=           0.
 Calling FoFJK, ICntrl=      2127 FMM=F ISym2X=0 I1Cent= 0 IOpClX= 0 NMat=1 NMatS=1 NMatT=0.
 FoFJK:  IHMeth= 1 ICntrl=    2127 DoSepK=F KAlg= 0 I1Cent=           0 FoldK=F
 IRaf=         0 NMat=       1 IRICut=       1 DoRegI=T DoRafI=F ISym2E= 0 IDoP0=0 IntGTp=1.
 FoFCou: FMM=F IPFlag=           0 FMFlag=      100000 FMFlg1=         800
         NFxFlg=           0 DoJE=F BraDBF=F KetDBF=F FulRan=T
         wScrn=  0.000000 ICntrl=      2127 IOpCl=  0 I1Cent=           0 NGrid=           0
         NMat0=    1 NMatS0=      1 NMatT0=    0 NMatD0=    1 NMtDS0=    0 NMtDT0=    0
 Symmetry not used in FoFCou.
 Leave Link  703 at Tue Jul  2 22:23:08 2024, MaxMem=  8053063680 cpu:             218.1 elap:              13.6
 (Enter /share/apps/g16.b01_avx2/g16/l716.exe)
 Dipole        = 1.81931730D+00-1.37616562D-03-8.34116023D-01
 ***** Axes restored to original set *****
 -------------------------------------------------------------------
 Center     Atomic                   Forces (Hartrees/Bohr)
 Number     Number              X              Y              Z
 -------------------------------------------------------------------
      1        6          -0.015274147    0.018657229   -0.000568836
      2        6          -0.006709400   -0.013613137   -0.001368174
      3        6           0.024660754    0.000816046   -0.001865870
      4        6          -0.007836260    0.013102179   -0.001410051
      5        6          -0.013938502   -0.019786514   -0.000528223
      6        7           0.043288179    0.001705339    0.000020119
      7        8          -0.029382515   -0.001001773    0.038565422
      8        6          -0.010316712   -0.000333044    0.033808971
      9        8           0.026337310    0.000893268   -0.049650303
     10        6          -0.037000397   -0.001345162   -0.013265384
     11        1           0.006120257   -0.010674313   -0.008740900
     12        1           0.005339280    0.011054540   -0.008778344
     13        1          -0.002284423   -0.000063854    0.011929671
     14        9          -0.010610617    0.021820308    0.000866491
     15        9          -0.008981408   -0.022571841    0.000883858
     16        9           0.019068680   -0.020436958    0.000049695
     17        9           0.017519921    0.021777686    0.000051857
 -------------------------------------------------------------------
 Cartesian Forces:  Max     0.049650303 RMS     0.017588862
 Leave Link  716 at Tue Jul  2 22:23:08 2024, MaxMem=  8053063680 cpu:               0.3 elap:               0.0
 (Enter /share/apps/g16.b01_avx2/g16/l103.exe)

 GradGradGradGradGradGradGradGradGradGradGradGradGradGradGradGradGradGrad
 Berny optimization.
 FormGI is forming the generalized inverse of G from B-inverse, IUseBI=4.
 Internal  Forces:  Max     0.055311307 RMS     0.015159009
 Search for a local minimum.
 Step number   1 out of a maximum of   83
 All quantities printed in internal units (Hartrees-Bohrs-Radians)
 RMS Force = .15159D-01 SwitMx=.10000D-02 MixMth= 1
 Mixed Optimization -- RFO/linear search
 Second derivative matrix not updated -- first step.
 ITU=  0
     Eigenvalues ---    0.00237   0.00501   0.01295   0.01295   0.01972
     Eigenvalues ---    0.02054   0.02059   0.02087   0.02098   0.02131
     Eigenvalues ---    0.02147   0.02309   0.07243   0.07243   0.16000
     Eigenvalues ---    0.16000   0.16000   0.25000   0.25000   0.25000
     Eigenvalues ---    0.25000   0.25000   0.25000   0.25000   0.25000
     Eigenvalues ---    0.25000   0.25000   0.25000   0.28519   0.37230
     Eigenvalues ---    0.37230   0.37230   0.40989   0.40989   0.41445
     Eigenvalues ---    0.44208   0.44513   0.46010   0.53704   0.54820
     Eigenvalues ---    0.55021   0.55021   0.55021   0.55021   0.92213
 RFO step:  Lambda=-3.33771937D-02 EMin= 2.36824180D-03
 Linear search not attempted -- first point.
 Iteration  1 RMS(Cart)=  0.08712729 RMS(Int)=  0.00213347
 Iteration  2 RMS(Cart)=  0.00506653 RMS(Int)=  0.00003562
 Iteration  3 RMS(Cart)=  0.00000648 RMS(Int)=  0.00003549
 Iteration  4 RMS(Cart)=  0.00000000 RMS(Int)=  0.00003549
 ITry= 1 IFail=0 DXMaxC= 2.50D-01 DCOld= 1.00D+10 DXMaxT= 3.00D-01 DXLimC= 3.00D+00 Rises=F
 Variable       Old X    -DE/DX   Delta X   Delta X   Delta X     New X
                                 (Linear)    (Quad)   (Total)
    R1        2.65861  -0.02507   0.00000  -0.05250  -0.05249   2.60612
    R2        2.54585  -0.04012   0.00000  -0.06995  -0.06990   2.47595
    R3        2.55113  -0.02768   0.00000  -0.04742  -0.04742   2.50371
    R4        2.63821  -0.01744   0.00000  -0.03286  -0.03291   2.60530
    R5        2.55113  -0.02419   0.00000  -0.04145  -0.04145   2.50968
    R6        2.63801  -0.01735   0.00000  -0.03268  -0.03273   2.60529
    R7        2.70231  -0.04121   0.00000  -0.09297  -0.09297   2.60933
    R8        2.65877  -0.02512   0.00000  -0.05264  -0.05264   2.60614
    R9        2.55113  -0.02422   0.00000  -0.04150  -0.04150   2.50963
   R10        2.54622  -0.04028   0.00000  -0.07029  -0.07024   2.47598
   R11        2.55113  -0.02768   0.00000  -0.04743  -0.04743   2.50370
   R12        2.70231  -0.03666   0.00000  -0.08270  -0.08270   2.61961
   R13        2.31929  -0.05531   0.00000  -0.05789  -0.05789   2.26141
   R14        2.91018  -0.02966   0.00000  -0.09311  -0.09311   2.81707
   R15        2.02201   0.01486   0.00000   0.03664   0.03664   2.05864
   R16        2.02201   0.01486   0.00000   0.03663   0.03663   2.05864
   R17        2.02201   0.01107   0.00000   0.02728   0.02728   2.04929
    A1        2.15518   0.00418   0.00000   0.01127   0.01133   2.16651
    A2        2.10831  -0.00706   0.00000  -0.02319  -0.02321   2.08509
    A3        2.01970   0.00288   0.00000   0.01191   0.01189   2.03158
    A4        2.06865  -0.00408   0.00000  -0.00965  -0.00969   2.05896
    A5        2.10074   0.00443   0.00000   0.01326   0.01328   2.11402
    A6        2.11379  -0.00035   0.00000  -0.00361  -0.00359   2.11020
    A7        2.07309  -0.00364   0.00000  -0.00395  -0.00413   2.06896
    A8        2.10485   0.00183   0.00000   0.00202   0.00198   2.10682
    A9        2.10525   0.00180   0.00000   0.00190   0.00186   2.10711
   A10        2.06831  -0.00400   0.00000  -0.00937  -0.00942   2.05889
   A11        2.11417  -0.00042   0.00000  -0.00384  -0.00382   2.11034
   A12        2.10071   0.00441   0.00000   0.01321   0.01323   2.11394
   A13        2.15543   0.00413   0.00000   0.01109   0.01114   2.16657
   A14        2.10824  -0.00705   0.00000  -0.02312  -0.02315   2.08509
   A15        2.01951   0.00291   0.00000   0.01203   0.01201   2.03152
   A16        2.04571   0.00340   0.00000   0.00061   0.00076   2.04647
   A17        1.91114   0.01752   0.00000   0.06183   0.06183   1.97297
   A18        2.13323  -0.00234   0.00000  -0.00826  -0.00826   2.12496
   A19        2.01673  -0.01855   0.00000  -0.06547  -0.06547   1.95126
   A20        2.13323   0.02090   0.00000   0.07374   0.07374   2.20696
   A21        1.91063   0.00062   0.00000   0.00251   0.00251   1.91314
   A22        1.91063   0.00063   0.00000   0.00257   0.00256   1.91320
   A23        1.91063  -0.00667   0.00000  -0.03308  -0.03309   1.87754
   A24        1.91063  -0.00146   0.00000  -0.01038  -0.01038   1.90025
   A25        1.91063   0.00344   0.00000   0.01919   0.01918   1.92981
   A26        1.91063   0.00344   0.00000   0.01920   0.01919   1.92982
    D1        0.00018   0.00002   0.00000   0.00046   0.00046   0.00064
    D2        3.14149  -0.00018   0.00000  -0.00318  -0.00320   3.13829
    D3       -3.14146   0.00011   0.00000   0.00210   0.00209  -3.13937
    D4       -0.00015  -0.00008   0.00000  -0.00154  -0.00156  -0.00171
    D5       -0.00002  -0.00001   0.00000  -0.00016  -0.00016  -0.00018
    D6       -3.14157  -0.00010   0.00000  -0.00172  -0.00175   3.13987
    D7       -0.00020  -0.00003   0.00000  -0.00084  -0.00083  -0.00102
    D8       -3.14059   0.00128   0.00000   0.02372   0.02373  -3.11686
    D9       -3.14151   0.00017   0.00000   0.00283   0.00282  -3.13869
   D10        0.00129   0.00148   0.00000   0.02739   0.02737   0.02866
   D11        0.00007   0.00003   0.00000   0.00093   0.00092   0.00099
   D12       -3.14149  -0.00018   0.00000  -0.00293  -0.00291   3.13878
   D13        3.14047  -0.00128   0.00000  -0.02364  -0.02364   3.11683
   D14       -0.00110  -0.00148   0.00000  -0.02749  -0.02747  -0.02857
   D15       -1.57256  -0.00067   0.00000  -0.01258  -0.01262  -1.58518
   D16        1.57026   0.00066   0.00000   0.01244   0.01248   1.58273
   D17        0.00009  -0.00003   0.00000  -0.00065  -0.00065  -0.00056
   D18        3.14148  -0.00011   0.00000  -0.00210  -0.00209   3.13938
   D19       -3.14153   0.00018   0.00000   0.00317   0.00318  -3.13834
   D20       -0.00014   0.00009   0.00000   0.00172   0.00174   0.00160
   D21       -0.00012   0.00002   0.00000   0.00026   0.00026   0.00014
   D22       -3.14151   0.00010   0.00000   0.00164   0.00166  -3.13985
   D23       -0.00000  -0.00000   0.00000  -0.00005  -0.00005  -0.00005
   D24        3.14155  -0.00000   0.00000  -0.00006  -0.00006   3.14150
   D25       -1.04767   0.00051   0.00000   0.00480   0.00480  -1.04286
   D26        1.04673  -0.00051   0.00000  -0.00481  -0.00481   1.04192
   D27        3.14112   0.00000   0.00000   0.00002   0.00002   3.14115
   D28        2.09389   0.00051   0.00000   0.00480   0.00480   2.09869
   D29       -2.09490  -0.00051   0.00000  -0.00481  -0.00482  -2.09972
   D30       -0.00051   0.00000   0.00000   0.00002   0.00002  -0.00049
         Item               Value     Threshold  Converged?
 Maximum Force            0.055311     0.000450     NO 
 RMS     Force            0.015159     0.000300     NO 
 Maximum Displacement     0.250281     0.001800     NO 
 RMS     Displacement     0.088039     0.001200     NO 
 Predicted change in Energy=-1.797886D-02
 Lowest energy point so far.  Saving SCF results.
 GradGradGradGradGradGradGradGradGradGradGradGradGradGradGradGradGradGrad

 Leave Link  103 at Tue Jul  2 22:23:08 2024, MaxMem=  8053063680 cpu:               0.3 elap:               0.0
 (Enter /share/apps/g16.b01_avx2/g16/l202.exe)
                          Input orientation:                          
 ---------------------------------------------------------------------
 Center     Atomic      Atomic             Coordinates (Angstroms)
 Number     Number       Type             X           Y           Z
 ---------------------------------------------------------------------
      1          6           0       -2.179384   -0.154325   -0.030112
      2          6           0       -0.802454   -0.170529    0.045511
      3          6           0       -0.142746    1.039415    0.084701
      4          6           0       -0.888825    2.198083    0.045276
      5          6           0       -2.260915    2.081521   -0.030376
      6          7           0       -2.900771    0.938765   -0.067788
      7          8           0        1.236361    1.089510    0.131207
      8          6           0        1.735298    1.109316    1.424391
      9          8           0        1.013277    1.084435    2.378394
     10          6           0        3.224944    1.163253    1.442244
     11          1           0        3.628653    0.290134    0.930926
     12          1           0        3.564616    2.061380    0.927704
     13          1           0        3.539718    1.176511    2.479907
     14          9           0       -0.130494   -1.315402    0.084136
     15          9           0       -0.302214    3.388927    0.083556
     16          9           0       -3.006921    3.175815   -0.067336
     17          9           0       -2.843629   -1.300100   -0.066827
 ---------------------------------------------------------------------
                    Distance matrix (angstroms):
                    1          2          3          4          5
     1  C    0.000000
     2  C    1.379100   0.000000
     3  C    2.363491   1.378665   0.000000
     4  C    2.684222   2.370187   1.378659   0.000000
     5  C    2.237333   2.684138   2.363444   1.379108   0.000000
     6  N    1.310216   2.376195   2.764071   2.376256   1.310233
     7  O    3.638745   2.398294   1.380800   2.398486   3.638837
     8  C    4.363152   3.159035   2.307965   3.158068   4.362481
     9  O    4.186706   3.211566   2.568938   3.209617   4.185294
    10  C    5.754181   4.466517   3.633124   4.466037   5.753822
    11  H    5.903764   4.542124   3.937127   4.983197   6.230584
    12  H    6.230594   4.983071   3.936953   4.542082   5.903824
    13  H    6.385878   5.157059   4.395036   5.155873   6.384975
    14  F    2.357775   1.328065   2.354849   3.594601   4.011346
    15  F    4.011399   3.594638   2.354918   1.328039   2.357710
    16  F    3.431623   4.008794   3.576425   2.335588   1.324904
    17  F    1.324904   2.335582   3.576459   4.008879   3.431654
                    6          7          8          9         10
     6  N    0.000000
     7  O    4.144658   0.000000
     8  C    4.873276   1.386237   0.000000
     9  O    4.617878   2.258238   1.196685   0.000000
    10  C    6.313080   2.383006   1.490729   2.402927   0.000000
    11  H    6.637133   2.646056   2.121170   3.092939   1.089387
    12  H    6.637206   2.645697   2.121210   3.093260   1.089386
    13  H    6.930164   3.290807   2.091545   2.530156   1.084436
    14  F    3.574743   2.766607   3.340168   3.511559   4.387158
    15  F    3.574731   2.767093   3.338551   3.508202   4.386400
    16  F    2.239567   4.732603   5.383707   5.149510   6.720519
    17  F    2.239594   4.732417   5.384755   5.151780   6.721085
                   11         12         13         14         15
    11  H    0.000000
    12  H    1.772407   0.000000
    13  H    1.786873   1.786882   0.000000
    14  F    4.174445   5.076230   5.041806   0.000000
    15  F    5.076640   4.174607   5.039616   4.707463   0.000000
    16  F    7.304418   6.739226   7.303707   5.335523   2.717282
    17  F    6.739050   7.304399   7.305243   2.717375   5.335577
                   16         17
    16  F    0.000000
    17  F    4.478892   0.000000
 Stoichiometry    C7H3F4NO2
 Framework group  C1[X(C7H3F4NO2)]
 Deg. of freedom    45
 Full point group                 C1      NOp   1
 RotChk:  IX=0 Diff= 3.09D-02
 Largest Abelian subgroup         C1      NOp   1
 Largest concise Abelian subgroup C1      NOp   1
                         Standard orientation:                         
 ---------------------------------------------------------------------
 Center     Atomic      Atomic             Coordinates (Angstroms)
 Number     Number       Type             X           Y           Z
 ---------------------------------------------------------------------
      1          6           0       -1.737691   -1.118237    0.057723
      2          6           0       -0.396920   -1.185275   -0.258120
      3          6           0        0.289455   -0.000516   -0.419216
      4          6           0       -0.395841    1.184912   -0.258496
      5          6           0       -1.736685    1.119096    0.057329
      6          7           0       -2.401146    0.000746    0.213832
      7          8           0        1.626441   -0.001378   -0.764293
      8          6           0        2.470617   -0.000105    0.335261
      9          8           0        2.046964    0.001617    1.454444
     10          6           0        3.905615   -0.001207   -0.068535
     11          1           0        4.117300   -0.888598   -0.663927
     12          1           0        4.117776    0.883806   -0.667285
     13          1           0        4.500859    0.000342    0.837934
     14          9           0        0.217584   -2.354180   -0.398835
     15          9           0        0.219526    2.353282   -0.399639
     16          9           0       -2.423496    2.240190    0.221060
     17          9           0       -2.425442   -2.238702    0.221810
 ---------------------------------------------------------------------
 Rotational constants (GHZ):           0.9627727           0.5873387           0.3984670
 Leave Link  202 at Tue Jul  2 22:23:08 2024, MaxMem=  8053063680 cpu:               0.0 elap:               0.0
 (Enter /share/apps/g16.b01_avx2/g16/l301.exe)
 Standard basis: def2TZVP (5D, 7F)
 Ernie: Thresh=  0.10000D-02 Tol=  0.10000D-05 Strict=F.
 There are   522 symmetry adapted cartesian basis functions of A   symmetry.
 There are   452 symmetry adapted basis functions of A   symmetry.
   452 basis functions,   738 primitive gaussians,   522 cartesian basis functions
    52 alpha electrons       52 beta electrons
       nuclear repulsion energy       938.2510552503 Hartrees.
 IExCor= 1009 DFT=T Ex+Corr=PBE1PBE ExCW=0 ScaHFX=  0.250000
 ScaDFX=  0.750000  0.750000  1.000000  1.000000 ScalE2=  1.000000  1.000000
 IRadAn=  99590 IRanWt=     -1 IRanGd=            0 ICorTp=0 IEmpDi=131
 NAtoms=   17 NActive=   17 NUniq=   17 SFac= 1.00D+00 NAtFMM=   60 NAOKFM=F Big=F
 Integral buffers will be    131072 words long.
 Raffenetti 2 integral format.
 Two-electron integral symmetry is turned on.
 R6Disp:  Grimme-D3 Dispersion energy=       -0.0081679355 Hartrees.
 Nuclear repulsion after empirical dispersion term =      938.2428873149 Hartrees.
 ------------------------------------------------------------------------------
 Polarizable Continuum Model (PCM)
 =================================
 Model                : PCM.
 Atomic radii         : UFF (Universal Force Field).
 Polarization charges : Total charges.
 Charge compensation  : None.
 Solution method      : On-the-fly selection.
 Cavity type          : Scaled VdW (van der Waals Surface) (Alpha=1.100).
 Cavity algorithm     : GePol (No added spheres)
                        Default sphere list used, NSphG=   17.
                        Lebedev-Laikov grids with approx.  5.0 points / Ang**2.
                        Smoothing algorithm: York/Karplus (Gamma=1.0000).
                        Polarization charges: spherical gaussians, with
                                              point-specific exponents (IZeta= 3).
                        Self-potential: point-specific (ISelfS= 7).
                        Self-field    : sphere-specific E.n sum rule (ISelfD= 2).
 1st derivatives      : Analytical E(r).r(x)/FMM algorithm (CHGder, D1EAlg=3).
                        Cavity 1st derivative terms included.
 Solvent              : Water, Eps=  78.355300 Eps(inf)=   1.777849
 ------------------------------------------------------------------------------
 Spheres list:
 ISph  on   Nord     Re0    Alpha      Xe            Ye            Ze
    1   C      1    1.9255  1.100     -1.737691     -1.118237      0.057723
    2   C      2    1.9255  1.100     -0.396920     -1.185275     -0.258120
    3   C      3    1.9255  1.100      0.289455     -0.000516     -0.419216
    4   C      4    1.9255  1.100     -0.395841      1.184912     -0.258496
    5   C      5    1.9255  1.100     -1.736685      1.119096      0.057329
    6   N      6    1.8300  1.100     -2.401146      0.000746      0.213832
    7   O      7    1.7500  1.100      1.626441     -0.001378     -0.764293
    8   C      8    1.9255  1.100      2.470617     -0.000105      0.335261
    9   O      9    1.7500  1.100      2.046964      0.001617      1.454444
   10   C     10    1.9255  1.100      3.905615     -0.001207     -0.068535
   11   H     11    1.4430  1.100      4.117300     -0.888598     -0.663927
   12   H     12    1.4430  1.100      4.117776      0.883806     -0.667285
   13   H     13    1.4430  1.100      4.500859      0.000342      0.837934
   14   F     14    1.6820  1.100      0.217584     -2.354180     -0.398835
   15   F     15    1.6820  1.100      0.219526      2.353282     -0.399639
   16   F     16    1.6820  1.100     -2.423496      2.240190      0.221060
   17   F     17    1.6820  1.100     -2.425442     -2.238702      0.221810
 ------------------------------------------------------------------------------
 GePol: Number of generator spheres                  =      17
 GePol: Total number of spheres                      =      17
 GePol: Number of exposed spheres                    =      17 (100.00%)
 GePol: Number of points                             =    1774
 GePol: Average weight of points                     =       0.13
 GePol: Minimum weight of points                     =   0.38D-11
 GePol: Maximum weight of points                     =    0.20577
 GePol: Number of points with low weight             =      85
 GePol: Fraction of low-weight points (<1% of avg)   =       4.79%
 GePol: Cavity surface area                          =    222.977 Ang**2
 GePol: Cavity volume                                =    221.848 Ang**3
 Leave Link  301 at Tue Jul  2 22:23:08 2024, MaxMem=  8053063680 cpu:               0.4 elap:               0.0
 (Enter /share/apps/g16.b01_avx2/g16/l302.exe)
 NPDir=0 NMtPBC=     1 NCelOv=     1 NCel=       1 NClECP=     1 NCelD=      1
         NCelK=      1 NCelE2=     1 NClLst=     1 CellRange=     0.0.
 One-electron integrals computed using PRISM.
 One-electron integral symmetry used in STVInt
   1 Symmetry operations used in ECPInt.
 ECPInt:  NShTT=   13861 NPrTT=   44868 LenC2=   12682 LenP2D=   30098.
 LDataN:  DoStor=T MaxTD1= 6 Len=  172
 NBasis=   452 RedAO= T EigKep=  4.28D-05  NBF=   452
 NBsUse=   452 1.00D-06 EigRej= -1.00D+00 NBFU=   452
 Precomputing XC quadrature grid using
 IXCGrd= 4 IRadAn=       99590 IRanWt=          -1 IRanGd=           0 AccXCQ= 0.00D+00.
 Generated NRdTot=       0 NPtTot=           0 NUsed=           0 NTot=          32
 NSgBfM=   516   516   516   516   516 MxSgAt=    17 MxSgA2=    17.
 Leave Link  302 at Tue Jul  2 22:23:08 2024, MaxMem=  8053063680 cpu:               2.8 elap:               0.2
 (Enter /share/apps/g16.b01_avx2/g16/l303.exe)
 DipDrv:  MaxL=1.
 Leave Link  303 at Tue Jul  2 22:23:08 2024, MaxMem=  8053063680 cpu:               0.5 elap:               0.0
 (Enter /share/apps/g16.b01_avx2/g16/l401.exe)
 Initial guess from the checkpoint file:  "/scratch/Gau-307106.chk"
 B after Tr=    -0.000000   -0.000000    0.000000
         Rot=    0.999997    0.000021   -0.002548    0.000000 Ang=   0.29 deg.
 Guess basis will be translated and rotated to current coordinates.
 JPrj=2 DoOrth=T DoCkMO=T.
 Generating alternative initial guess.
 ExpMin= 9.52D-02 ExpMax= 3.55D+04 ExpMxC= 1.21D+03 IAcc=4 IRadAn=    199590 AccDes= 0.00D+00
 Harris functional with IExCor= 1009 and IRadAn=  199590 diagonalized for initial guess.
 HarFok:  IExCor= 1009 AccDes= 0.00D+00 IRadAn=    199590 IDoV= 1 UseB2=F ITyADJ=14
 ICtDFT=  3500011 ScaDFX=  1.000000  1.000000  1.000000  1.000000
 FoFCou: FMM=F IPFlag=           0 FMFlag=      100000 FMFlg1=           0
         NFxFlg=           0 DoJE=T BraDBF=F KetDBF=T FulRan=T
         wScrn=  0.000000 ICntrl=       500 IOpCl=  0 I1Cent=   200000004 NGrid=           0
         NMat0=    1 NMatS0=      1 NMatT0=    0 NMatD0=    1 NMtDS0=    0 NMtDT0=    0
 Petite list used in FoFCou.
[...]
   yy         0.125999D+03      0.186711D+02      0.207744D+02
   zx         0.221511D+02      0.328245D+01      0.365222D+01
   zy         0.168581D+01      0.249811D+00      0.277953D+00
   zz         0.136774D+03      0.202678D+02      0.225509D+02

 ----------------------------------------------------------------------
 1\1\GINC-CORNBREAD-16-04\Freq\RPBE1PBE\def2TZVP\C7H3F4N1O2\HILLEL\02-J
 ul-2024\0\\#P Geom=AllCheck Guess=TCheck SCRF=Check GenChk RPBE1PBE/de
 f2TZVP Freq\\tfp-pyridine-ester\\0,1\C,-2.2452629334,-0.1663928831,-0.
 1669183468\C,-0.8760812833,-0.26072233,0.0077152711\C,-0.1588961136,0.
 9126530541,0.1910502467\C,-0.8551155844,2.113715949,0.1919788553\C,-2.
 2253105726,2.0710207971,0.0128271652\N,-2.8959674219,0.9646378018,-0.1
 618429106\O,1.1919963897,0.8636186017,0.2964676521\C,1.7562171042,1.25
 11617663,1.4963626591\O,1.0880344295,1.5607835088,2.4349500618\C,3.237
 3110296,1.2048241061,1.3981734354\H,3.5551189257,0.2109642437,1.079485
 0161\H,3.5689914428,1.9157419367,0.6387302519\H,3.6745427944,1.4538172
 802,2.3609040565\F,-0.2596867838,-1.4311321065,0.0023631164\F,-0.21539
 48213,3.261147644,0.3474768197\F,-2.9084617769,3.2046459627,0.01155581
 3\F,-2.9475215544,-1.2737757826,-0.3457650929\\Version=ES64L-G16RevB.0
 1\State=1-A\HF=-872.5771114\RMSD=3.359e-09\RMSF=3.325e-06\ZeroPoint=0.
 0985407\Thermal=0.1107063\Dipole=1.9430427,-0.1641068,-0.3834626\Dipol
 eDeriv=1.2208325,1.1346317,0.268893,0.5126755,1.5461926,0.1766137,0.15
 35366,0.2562341,0.2867178,0.1195932,-1.1537765,-0.155536,-0.5802235,1.
 1783073,0.0473417,-0.0684844,-0.0690893,0.0738166,1.6388773,0.0791355,
 0.4274795,-0.0189822,0.4763497,0.0055597,0.1363657,0.0083598,0.1125299
 ,0.1571315,1.0996849,0.0286598,0.6117882,1.0597979,0.0935641,0.1116481
 ,0.2069279,0.1472383,1.1867789,-1.121387,0.0688918,-0.5274391,1.603820
 2,0.0258219,0.0825154,-0.0285836,0.2547569,-0.7864112,-0.001376,-0.095
 993,0.0082465,-0.7535304,-0.0302691,-0.0678508,-0.0433073,-0.27908,-2.
 0429846,-0.1986871,-0.8049231,-0.2905867,-0.3710115,-0.3308686,-0.8141
 221,-0.2884468,-1.1634317,2.0636464,0.0149852,0.0878317,0.3468298,0.52
 81059,0.6308219,0.87077,0.5563443,2.2591943,-0.9131382,0.1276533,0.411
 6233,-0.042918,-0.4555339,-0.273693,-0.1445494,-0.261465,-1.2673723,-0
 .4496995,0.0169115,0.0611816,-0.0055187,-0.0179718,-0.0119916,0.103811
 4,-0.0095403,-0.0539151,0.0731298,-0.0048435,-0.0013307,0.0251385,0.00
 27473,-0.0498084,-0.0356299,-0.0448355,0.1258642,0.0642528,0.0036559,-
 0.004343,-0.0281819,0.0739089,0.0770786,-0.0263885,0.0743678,0.0567622
 ,0.0238097,-0.0043018,-0.0240789,-0.0107462,0.1119045,-0.0370666,-0.05
 66722,-0.0357262,-0.0149638,-0.4725205,0.6149208,0.0053847,0.5089114,-
 1.2811867,-0.0481251,-0.0079724,-0.0068644,-0.0927504,-0.5135224,-0.59
 4407,-0.0800905,-0.5107544,-1.209855,-0.1022481,-0.0994524,-0.1345179,
 -0.1137728,-0.6736265,0.7033425,-0.0377974,0.6484651,-1.264405,0.02144
 59,-0.0194162,0.0016144,-0.1496967,-0.6961493,-0.7161425,-0.1558528,-0
 .6467043,-1.2276401,-0.1941773,-0.118109,-0.1814721,-0.1818974\Polar=1
 43.6899347,0.6783034,127.6304938,12.5388788,8.2673269,83.8082598\Quadr
 upole=5.7431945,-3.6269093,-2.1162852,0.0386158,-0.3834229,-1.9517428\
 PG=C01 [X(C7H3F4N1O2)]\NImag=0\\0.72485982,-0.01957050,0.73730257,0.07
 202545,0.04277939,0.17397876,-0.32000330,-0.03597807,-0.03562514,0.715
 73168,0.06176319,-0.10043201,0.00557085,-0.01705248,0.74082838,-0.0273
 5193,-0.00644690,-0.07362583,0.07603411,0.04396161,0.14478439,-0.03224
 671,-0.02836639,-0.00623578,-0.16659841,-0.14191990,-0.02631063,0.7070
 4166,-0.09242251,0.04845585,-0.00819140,-0.04952675,-0.27567675,-0.023
 57191,-0.00105409,0.72234020,-0.00917095,-0.00101193,-0.00019082,-0.02
 125348,-0.03855511,-0.06919181,0.08546680,0.05325410,0.18632661,-0.073
 30811,0.03816893,-0.00718744,0.08514997,0.02101640,0.01159866,-0.16555
 542,0.04815482,-0.00850400,0.71893631,0.02634196,-0.01966216,0.0020400
 1,-0.02557809,-0.05484688,-0.00684687,0.14064730,-0.27966383,0.0019585
 3,0.00790810,0.73763094,-0.00762831,0.00311412,-0.00103957,0.00927839,
 -0.00171748,0.00039163,-0.00451507,-0.00958035,-0.06192333,0.07448598,
 0.04548701,0.14358463,0.07496435,-0.02454183,0.00943772,-0.07487095,-0
 .02350043,-0.01097447,-0.02914581,0.09429913,0.00197278,-0.32264312,-0
 .05326285,-0.03749074,0.72691787,0.01975540,-0.10506254,-0.00491539,-0
 .03572560,-0.01730721,-0.00622536,0.03129835,0.04387674,0.00631975,0.0
 4496337,-0.09969653,0.00374243,0.00780867,0.73440610,0.01196021,-0.010
 68389,-0.00700674,-0.01208773,-0.00422529,-0.00202458,-0.00295947,0.01
 558037,0.00153748,-0.02947675,-0.00972083,-0.07369614,0.07371880,0.045
 50691,0.17431065,-0.19638133,0.13738048,-0.00674940,-0.01625252,0.0301
 5427,-0.00220391,0.00760641,-0.00074243,0.00071107,-0.01886696,-0.0287
 8394,-0.00610436,-0.19998394,-0.13569480,-0.02855318,0.39580194,0.1123
 4712,-0.30595856,-0.00507276,0.09736362,0.02290268,0.01355320,-0.00123
 714,-0.08432225,-0.00468589,-0.09585461,0.02790302,-0.01105438,-0.1105
 6383,-0.29502064,-0.03288371,-0.00041459,0.79421547,-0.00807502,-0.001
 59020,-0.06371111,0.00316711,0.00470078,0.01448457,0.00099220,-0.00639
 512,-0.00225077,-0.01125408,-0.00263473,0.01214007,-0.02697099,-0.0361
 7487,-0.06883068,0.03965928,0.05561067,0.10055260,0.01490661,-0.000166
 31,-0.00005439,-0.05765146,-0.00174506,-0.00635650,-0.27930618,0.01769
 101,-0.00505913,-0.05417635,0.00114619,-0.00224767,0.01196106,-0.00127
 032,0.00128673,-0.00851589,0.00146060,-0.00080762,0.48785899,0.0040083
 3,-0.00572753,-0.00098660,-0.03617005,0.00739263,-0.00508390,0.0160722
 6,-0.08110871,-0.01140420,0.03021234,0.00406414,0.00267184,0.00003312,
 -0.00728706,0.00012095,-0.00156653,0.00211804,-0.00008730,-0.00589756,
 0.11168906,0.00352333,-0.00147174,0.00624723,-0.01749439,0.00429244,0.
 00841309,-0.01262387,-0.01227136,-0.07761016,-0.01033883,-0.00362864,0
 .00775599,0.00339354,-0.00118316,0.00706284,-0.00237283,0.00017771,-0.
 00049728,0.07102476,0.08570216,0.30053083,-0.00408397,-0.00226528,0.00
 060217,0.00156549,0.00167758,0.00004366,-0.05674673,-0.01538700,-0.044
 07529,0.00247004,-0.00176537,-0.00098689,-0.00466856,0.00096609,0.0007
 0268,0.00266069,0.00039308,0.00035742,-0.11636044,-0.00443100,-0.02755
 899,0.76648501,-0.00372087,-0.00101993,0.00006683,0.00411645,-0.001203
 53,-0.00059083,-0.02272469,-0.00184727,0.00382171,0.01072867,0.0038886
 0,0.00119411,-0.00303083,0.00075489,-0.00162444,0.00248841,-0.00040091
 ,0.00023986,0.00539892,-0.06233539,-0.02376677,-0.09187572,0.27817575,
 -0.00930199,0.00062350,-0.00093539,0.01684873,-0.00392272,-0.00052096,
 -0.05990785,0.00417736,0.00402887,0.01283912,0.00691348,-0.00010702,-0
 .00510040,0.00174238,-0.00137651,0.00460812,-0.00205364,0.00027283,-0.
 00365887,-0.02489217,-0.12519046,-0.25601280,0.15033160,0.69111817,-0.
 00129132,0.00130955,-0.00004161,0.00329255,0.00092953,-0.00033974,-0.0
 0317840,0.00112277,0.00264400,0.00149372,0.00163238,-0.00154986,0.0019
 6849,0.00013196,-0.00030991,0.00006785,-0.00150756,-0.00020252,0.03690
 079,0.00281540,0.00988706,-0.35022774,0.09575166,0.28909180,0.34581581
 ,0.00107461,0.00014073,-0.00013635,-0.00191740,0.00110824,0.00039885,0
 .00945289,-0.00359417,0.00067743,-0.00369388,-0.00255610,-0.00132738,0
 .00107628,-0.00019014,0.00030831,-0.00076727,0.00004991,-0.00002195,-0
 .00440570,0.01143189,-0.04365316,0.10616373,-0.12222684,-0.13427839,-0
 .11548927,0.09249307,0.00346346,0.00054442,0.00039200,-0.00480211,0.00
 247754,0.00023149,0.02674735,0.00035655,-0.00113869,-0.00533282,-0.003
 20703,-0.00083926,0.00294856,-0.00083847,0.00035764,-0.00200947,0.0003
 1180,-0.00022725,-0.01093532,-0.04318862,-0.10787274,0.31684045,-0.133
 19207,-0.48452185,-0.34310968,0.18496852,0.59575667,0.00048950,0.00006
 911,0.00004952,-0.00089932,0.00044785,-0.00017333,0.00462959,-0.000413
 87,-0.00042331,-0.00069956,-0.00036188,0.00001880,0.00045681,-0.000105
 59,0.00011984,-0.00025850,0.00000954,-0.00004232,-0.03108037,-0.003697
 97,-0.01240947,-0.21849690,0.00231998,0.00030675,-0.02522895,0.0059132
 4,0.01712307,0.50219786,0.00031580,0.00019095,0.00016202,-0.00001921,0
 .00013176,0.00008243,-0.00039883,0.00327249,-0.00273671,-0.00067713,-0
 .00067166,0.00020133,0.00012360,-0.00004915,0.00017285,-0.00018622,0.0
 0008641,-0.00001630,-0.01279225,0.00867866,-0.00553934,0.00245154,-0.0
 9074069,0.00509089,0.01423622,0.02494997,-0.01065532,0.00478535,0.5453
 5112,0.00043480,-0.00026690,0.00026894,-0.00168599,0.00132905,-0.00006
 941,-0.00311552,-0.00382598,-0.00414214,-0.00076113,-0.00104442,-0.000
 23894,0.00031501,-0.00010874,0.00013631,-0.00025830,0.00007797,-0.0000
 1836,-0.04024380,-0.00389137,-0.00632434,-0.00061335,0.00456042,-0.076
 03007,0.04174874,-0.01070896,-0.00590786,0.02608717,0.02228841,0.60776
 861,0.00000103,-0.00002003,-0.00000860,-0.00011660,0.00009736,0.000017
 27,0.00053336,-0.00085691,0.00029764,0.00023554,0.00011766,0.00002256,
 0.00004981,-0.00003914,-0.00001728,-0.00000418,-0.00002233,-0.00000531
 ,0.00005633,-0.00187490,-0.00027265,-0.00728389,0.03603987,0.01041163,
 -0.00608578,-0.00413666,0.00176369,-0.06837101,0.07417185,0.01882022,0
 .07391076,0.00003872,0.00001379,-0.00000531,-0.00002084,-0.00000313,-0
 .00000843,0.00047409,0.00036082,0.00018383,-0.00016300,-0.00003131,-0.
 00003186,0.00004337,0.00001775,0.00000356,-0.00002163,-0.00000307,-0.0
 0000099,-0.00092406,0.00026574,-0.00014754,0.00032448,0.00034635,-0.00
 093866,-0.00111383,-0.00046946,0.00175876,0.07495807,-0.27341986,-0.07
 596662,-0.08090591,0.29453785,0.00005693,0.00000076,0.00000005,-0.0000
 6760,0.00000513,-0.00001027,0.00065667,0.00024797,0.00002884,-0.000107
 86,-0.00002963,-0.00000266,0.00004266,0.00000647,0.00001791,-0.0000239
 1,0.00000540,-0.00000423,-0.00201954,-0.00049591,-0.00075888,0.0040449
 4,-0.00134046,-0.00468983,0.00125470,0.00057982,0.00142781,0.01908382,
 -0.07701744,-0.06478592,-0.02522147,0.08160139,0.06768029,0.00009290,0
 .00009314,0.00003387,0.00012778,-0.00001150,0.00008653,0.00053364,0.00
 104827,-0.00038106,-0.00011198,-0.00014738,0.00012898,0.00006313,-0.00
 003204,0.00004389,-0.00005493,0.00001560,-0.00000510,-0.00008572,0.001
 43874,-0.00153237,-0.00858829,-0.02630494,0.02725295,-0.00495571,0.004
 72025,-0.00125646,-0.07000091,-0.05763378,0.05551589,0.00314866,0.0064
 6269,-0.00758905,0.07562121,-0.00003158,-0.00000381,0.00000505,0.00005
 910,0.00000081,0.00003330,-0.00022896,0.00010741,-0.00016429,0.0000228
 7,0.00002416,-0.00002541,-0.00002010,0.00001508,0.00000818,0.00001635,
 -0.00000879,0.00000288,-0.00013699,0.00026061,-0.00037077,0.00127723,0
 .00070063,-0.00228624,0.00169139,-0.00148481,-0.00033348,-0.05725755,-
 0.15678269,0.12670297,-0.00972077,-0.01777940,0.02019837,0.06032896,0.
 16939884,0.00013267,0.00002130,-0.00001979,-0.00019317,0.00005514,-0.0
 0002446,0.00089238,-0.00012236,0.00014501,-0.00014338,-0.00005492,0.00
 001062,0.00007985,-0.00004712,0.00003970,-0.00007154,0.00002043,-0.000
 00713,-0.00211085,-0.00032620,-0.00074865,0.00370690,-0.00125502,-0.00
 417372,0.00051533,0.00061966,0.00188690,0.05518013,0.12766260,-0.17660
 431,-0.00360368,-0.00667918,0.00638483,-0.06382877,-0.13750178,0.18835
 149,0.00032962,0.00001454,0.00010332,-0.00067906,0.00055562,-0.0000444
 9,0.00039645,-0.00070502,-0.00112241,-0.00045491,-0.00044321,-0.000053
 32,0.00031309,-0.00009960,0.00008039,-0.00020922,0.00001282,-0.0000249
 4,-0.00905761,-0.00016387,-0.00153453,-0.01063044,-0.00792641,-0.03125
 501,0.00346888,-0.00003708,0.00083746,-0.09244314,-0.02441639,-0.09633
 496,0.00400473,0.00087645,0.00996315,0.00420413,0.00403496,0.00946736,
 0.10088938,0.00000434,0.00004562,0.00000950,0.00014807,-0.00005115,0.0
 0003917,0.00006287,0.00099783,-0.00015907,-0.00019458,-0.00007703,-0.0
 0002481,0.00000911,0.00003099,0.00003063,-0.00000909,-0.00000392,-0.00
 000128,0.00019112,0.00106844,-0.00011717,0.00067438,-0.00288790,0.0016
 6251,0.00023025,-0.00029849,0.00031060,-0.02662830,-0.06091988,-0.0594
 1730,-0.01282614,-0.00382045,-0.02374862,0.01003399,0.00556955,0.01758
 655,0.02827323,0.06036338,0.00001726,-0.00001498,-0.00002860,-0.000048
 79,-0.00001170,-0.00003450,0.00056627,-0.00012850,0.00043882,-0.000000
 01,0.00001589,-0.00000466,-0.00000743,-0.00000063,-0.00002935,0.000003
 07,0.00001245,0.00000077,0.00062856,0.00005228,0.00104410,0.00373015,0
 .00102791,0.00130533,0.00046677,0.00044200,0.00119587,-0.10481367,-0.0
 5923747,-0.27400787,-0.00221944,0.00021890,-0.00525977,-0.00830297,-0.
 00624712,-0.01521895,0.11000895,0.06385811,0.29055437,-0.01694795,0.05
 196930,0.00093744,-0.13586242,0.12201325,-0.00363506,0.00717183,-0.011
 12512,-0.00046450,-0.00824593,-0.00187966,-0.00220722,0.00418784,-0.00
 442176,0.00012055,-0.00847023,0.00037628,-0.00182349,0.00725980,-0.001
 49531,0.00176554,-0.00024846,-0.00106943,-0.00138543,-0.00006624,0.000
 39248,0.00057805,0.00014652,0.00017686,0.00026942,0.00001982,0.0000176
 9,0.00000879,0.00002933,-0.00000481,0.00003120,0.00013701,0.00000073,-
 0.00001028,0.14861872,0.00750789,-0.02467037,-0.00108528,0.11923484,-0
 .30324637,-0.00413661,0.03260542,-0.05182967,0.00006358,-0.00304855,0.
 00483782,-0.00009367,-0.00265719,0.00661598,0.00012206,0.00114364,-0.0
 0354859,-0.00060642,-0.00287015,0.00362381,-0.00118171,0.00192566,0.00
 206472,0.00337588,-0.00037800,-0.00050525,-0.00171442,-0.00026180,-0.0
 0035099,-0.00031367,0.00001119,-0.00002835,-0.00002216,-0.00008485,0.0
 0000959,-0.00005777,-0.00024070,-0.00002826,0.00001599,-0.15972346,0.3
 7032068,-0.00244457,0.00474767,0.00451224,-0.00426043,-0.00413221,-0.0
 3805737,0.00390677,-0.00565976,0.00685711,-0.00212473,-0.00038717,0.00
 567666,0.00027857,-0.00010818,0.00029300,-0.00182601,-0.00069481,0.005
 92418,0.00087245,0.00048021,-0.00499376,-0.00066839,0.00044542,0.00048
 580,0.00036900,0.00000904,-0.00007909,-0.00001280,-0.00013823,-0.00009
 399,0.00002385,0.00000581,-0.00000797,-0.00003222,-0.00000751,0.000001
 10,-0.00003253,-0.00001222,0.00002088,0.00455014,0.00473447,0.02340692
 ,0.00416513,0.00443279,0.00093274,-0.00811425,0.00251171,-0.00137742,0
 .00673211,0.00976587,0.00110984,-0.14057779,-0.12307185,-0.02126424,-0
 .01821279,-0.05183438,-0.00631551,-0.00840740,-0.00009250,-0.00192994,
 0.00849898,0.00199500,0.00232081,0.00075810,-0.00268910,-0.00376380,-0
 .00199236,0.00247861,0.00084060,0.00015539,0.00009541,0.00045473,-0.00
 006344,0.00000967,-0.00000071,0.00003416,-0.00004755,0.00005395,0.0001
 3859,0.00002502,-0.00000784,0.00198074,-0.00081474,0.00013613,0.154767
 47,0.00270644,0.00615247,0.00073345,0.00324430,0.00436632,0.00042629,-
 0.03498037,-0.05088510,-0.00709795,-0.12049330,-0.29409679,-0.03260450
 ,-0.00765466,-0.02240969,-0.00278964,-0.00069764,-0.00327190,-0.000664
 41,0.00420724,0.00674738,0.00301078,-0.00004271,-0.00309225,-0.0055214
 8,-0.00141883,0.00105493,0.00233821,0.00020938,0.00025585,0.00059576,-
 0.00002055,0.00000779,0.00000799,0.00006151,-0.00002662,0.00007860,0.0
 0026293,0.00000104,-0.00000219,0.00065678,-0.00597687,-0.00042400,0.16
 143764,0.35803248,0.00042388,0.00101952,0.00047827,-0.00128089,0.00018
 476,0.00617088,-0.00212728,-0.00352520,0.00540634,-0.02115218,-0.03359
 282,-0.04250548,-0.00306650,-0.00814226,0.00338242,-0.00184764,-0.0009
 4099,0.00596502,0.00115437,0.00139550,-0.00452084,-0.00024574,-0.00042
 141,-0.00121348,-0.00061468,0.00232251,-0.00011719,-0.00003000,-0.0002
 8020,0.00019533,-0.00000405,0.00001311,-0.00001061,-0.00012294,-0.0000
 1081,-0.00000821,0.00000770,-0.00001046,0.00001440,0.00019374,-0.00055
 167,0.00038752,0.02863395,0.04243208,0.03108267,-0.01062857,-0.0018838
 6,-0.00289038,0.00894671,-0.00057271,0.00107051,-0.00131115,-0.0128056
 6,-0.00159372,-0.03263667,0.05731089,-0.00109985,-0.16053736,0.1217735
 2,-0.00598136,0.02558312,-0.01219434,0.00271090,-0.00540962,0.00197732
 ,-0.00252640,0.00195122,0.00129789,0.00415730,-0.00019004,-0.00036277,
 -0.00182538,-0.00029389,-0.00017381,-0.00023207,0.00000083,-0.00003417
 ,-0.00004347,-0.00005069,0.00000718,-0.00005027,-0.00018786,-0.0000166
 8,-0.00000337,-0.00276385,0.00498207,0.00016529,0.00305153,-0.00252229
 ,0.00060854,0.17214790,0.00817711,0.00379423,0.00077802,-0.00638299,0.
 00209974,-0.00063603,-0.00546542,0.00519942,-0.00095909,0.01685150,-0.
 02883831,-0.00099136,0.12955458,-0.24271727,0.00139830,0.00830387,-0.0
 7735848,-0.00489571,0.00488571,0.00024469,0.00267891,-0.00203753,-0.00
 136504,-0.00414364,0.00025211,0.00042252,0.00186616,0.00030674,0.00013
 498,0.00024950,0.00001309,0.00002796,0.00003722,0.00004794,-0.00001086
 ,0.00005575,0.00019435,0.00000458,0.00000252,0.00517479,-0.00836691,0.
 00013677,0.00104684,0.01100417,0.00119923,-0.15878330,0.34029457,-0.00
 193164,-0.00062355,0.00916500,0.00056678,0.00009509,0.00031931,-0.0010
 3470,-0.00181623,0.00570375,-0.00437700,0.00459860,0.01018978,-0.00518
 813,0.00048022,-0.04329033,0.00410048,-0.00760796,-0.00188191,-0.00051
 638,0.00021049,-0.00107992,-0.00005104,0.00034252,0.00051141,0.0001834
 4,-0.00013664,-0.00009249,-0.00001912,-0.00001564,-0.00004780,0.000004
 38,-0.00000407,-0.00000343,-0.00000207,-0.00000132,-0.00000819,-0.0000
 1685,-0.00000656,0.00000641,0.00022469,0.00005763,-0.00110047,0.000879
 10,0.00064087,-0.00332722,0.00709874,0.00391559,0.02460373,-0.16491769
 ,-0.12064555,-0.02532947,-0.03376589,-0.05636468,-0.01008326,-0.000556
 25,0.01295750,-0.00015428,0.00899123,0.00018973,0.00121283,-0.01081991
 ,0.00252585,-0.00233190,0.02568509,0.00990824,0.00425440,-0.00579892,-
 0.00325533,-0.00325071,0.00144486,0.00120018,0.00486973,0.00020844,-0.
 00046207,-0.00187145,-0.00030314,-0.00005903,-0.00040086,-0.00003596,-
 0.00002181,-0.00003805,-0.00000670,0.00001027,-0.00005813,-0.00021964,
 0.00002168,-0.00000723,0.00305347,0.00266872,0.00109948,-0.00291417,-0
 .00495587,-0.00053027,0.00232837,-0.00213940,0.00007931,0.17762680,-0.
 12829548,-0.23355931,-0.03175202,-0.01579491,-0.02606353,-0.00494801,0
 .00576262,0.00431698,0.00049531,0.00609805,0.00179191,0.00104036,-0.00
 771615,0.00402271,-0.00132432,-0.01060288,-0.07737841,-0.00746492,-0.0
 0477239,-0.00112640,-0.00253065,0.00195083,0.00118883,0.00411935,-0.00
 019574,-0.00032600,-0.00180315,-0.00029228,-0.00011727,-0.00026012,-0.
 00002770,-0.00002301,-0.00003630,-0.00003661,0.00001031,-0.00005569,-0
 .00019263,0.00000567,-0.00000346,-0.00105861,0.01107902,0.00100472,-0.
 00524843,-0.00786321,-0.00109091,0.00200073,-0.00456998,-0.00012903,0.
 15842158,0.32861169,-0.02613358,-0.03074059,-0.04848464,-0.00709539,-0
 .01010789,0.00876384,-0.00039825,0.00147184,0.00597490,0.00183645,0.00
 013353,0.00060768,-0.00338884,-0.00005396,0.00911639,0.00293853,-0.004
 77550,-0.00191133,-0.00095681,-0.00027715,-0.00145704,0.00018413,0.000
 16061,0.00103687,0.00000716,-0.00006331,-0.00045198,-0.00004510,-0.000
 02388,-0.00009819,-0.00000878,-0.00000270,-0.00000616,-0.00000912,-0.0
 0000202,-0.00000623,-0.00004930,0.00000041,0.00000272,0.00084643,0.001
 39376,-0.00323276,-0.00070238,-0.00115987,-0.00137982,0.00043499,-0.00
 069215,0.00033236,0.03253986,0.04473885,0.03119338\\0.00000041,-0.0000
 0147,0.00000389,-0.00000074,-0.00000163,0.00000238,0.00000245,-0.00000
 061,0.00000126,0.00000270,-0.00000086,-0.00000368,-0.00000272,-0.00000
 298,0.00000266,-0.00000370,0.00000024,0.00000074,-0.00000126,0.0000016
 5,0.00000196,0.00000141,0.00000146,-0.00000465,-0.00000020,0.00000478,
 -0.00000231,-0.00000074,-0.00001140,0.00000431,0.00000064,0.00000496,-
 0.00000337,0.00000123,0.00000285,-0.00000504,0.00000079,0.00000829,-0.
 00000396,0.00000045,-0.00000229,0.00000520,0.00000072,-0.00000095,-0.0
 0000248,-0.00000057,0.00000032,-0.00000351,-0.00000088,-0.00000234,0.0
 0000659\\\@


 THE ONLY DIFFERENCE BETWEEN ECCENTRICS AND JOGGERS
 IS THAT JOGGERS WEAR SWEATBANDS WHEN THEY RUN IN THE RAIN.
 Job cpu time:       0 days  1 hours 46 minutes 34.5 seconds.
 Elapsed time:       0 days  0 hours  6 minutes 41.5 seconds.
 File lengths (MBytes):  RWF=    376 Int=      0 D2E=      0 Chk=     23 Scr=      1
 Normal termination of Gaussian 16 at Tue Jul  2 23:02:45 2024.
