 Entering Gaussian System, Link 0=g16
 Input=input.com
 Output=input.log
 Initial command:
 /share/apps/g16.b01_avx2/g16/l1.exe "/scratch/Gau-315967.inp" -scrdir="/scratch/"
 Entering Link 1 = /share/apps/g16.b01_avx2/g16/l1.exe PID=    315969.
  
 Copyright (c) 1988-2017, Gaussian, Inc.  All Rights Reserved.
  
 This is part of the Gaussian(R) 16 program.  It is based on
 the Gaussian(R) 09 system (copyright 2009, Gaussian, Inc.),
 the Gaussian(R) 03 system (copyright 2003, Gaussian, Inc.),
 the Gaussian(R) 98 system (copyright 1998, Gaussian, Inc.),
 the Gaussian(R) 94 system (copyright 1995, Gaussian, Inc.),
 the Gaussian 92(TM) system (copyright 1992, Gaussian, Inc.),
 the Gaussian 90(TM) system (copyright 1990, Gaussian, Inc.),
 the Gaussian 88(TM) system (copyright 1988, Gaussian, Inc.),
 the Gaussian 86(TM) system (copyright 1986, Carnegie Mellon
 University), and the Gaussian 82(TM) system (copyright 1983,
 Carnegie Mellon University). Gaussian is a federally registered
 trademark of Gaussian, Inc.
  
 This software contains proprietary and confidential information,
 including trade secrets, belonging to Gaussian, Inc.
  
 This software is provided under written license and may be
 used, copied, transmitted, or stored only in accord with that
 written license.
  
 The following legend is applicable only to US Government
 contracts under FAR:
  
                    RESTRICTED RIGHTS LEGEND
  
 Use, reproduction and disclosure by the US Government is
 subject to restrictions as set forth in subparagraphs (a)
 and (c) of the Commercial Computer Software - Restricted
 Rights clause in FAR 52.227-19.
  
 Gaussian, Inc.
 340 Quinnipiac St., Bldg. 40, Wallingford CT 06492
  
  
 ---------------------------------------------------------------
 Warning -- This program may not be used in any manner that
 competes with the business of Gaussian, Inc. or will provide
 assistance to any competitor of Gaussian, Inc.  The licensee
 of this program is prohibited from giving any competitor of
 Gaussian, Inc. access to this program.  By using this program,
 the user acknowledges that Gaussian, Inc. is engaged in the
 business of creating and licensing software in the field of
 computational chemistry and represents and warrants to the
 licensee that it is not a competitor of Gaussian, Inc. and that
 it will not use this program in any manner prohibited above.
 ---------------------------------------------------------------
  

 Cite this work as:
 Gaussian 16, Revision B.01,
 M. J. Frisch, G. W. Trucks, H. B. Schlegel, G. E. Scuseria, 
 M. A. Robb, J. R. Cheeseman, G. Scalmani, V. Barone, 
 G. A. Petersson, H. Nakatsuji, X. Li, M. Caricato, A. V. Marenich, 
 J. Bloino, B. G. Janesko, R. Gomperts, B. Mennucci, H. P. Hratchian, 
 J. V. Ortiz, A. F. Izmaylov, J. L. Sonnenberg, D. Williams-Young, 
 F. Ding, F. Lipparini, F. Egidi, J. Goings, B. Peng, A. Petrone, 
 T. Henderson, D. Ranasinghe, V. G. Zakrzewski, J. Gao, N. Rega, 
 G. Zheng, W. Liang, M. Hada, M. Ehara, K. Toyota, R. Fukuda, 
 J. Hasegawa, M. Ishida, T. Nakajima, Y. Honda, O. Kitao, H. Nakai, 
 T. Vreven, K. Throssell, J. A. Montgomery, Jr., J. E. Peralta, 
 F. Ogliaro, M. J. Bearpark, J. J. Heyd, E. N. Brothers, K. N. Kudin, 
 V. N. Staroverov, T. A. Keith, R. Kobayashi, J. Normand, 
 K. Raghavachari, A. P. Rendell, J. C. Burant, S. S. Iyengar, 
 J. Tomasi, M. Cossi, J. M. Millam, M. Klene, C. Adamo, R. Cammi, 
 J. W. Ochterski, R. L. Martin, K. Morokuma, O. Farkas, 
 J. B. Foresman, and D. J. Fox, Gaussian, Inc., Wallingford CT, 2016.
 
 ******************************************
 Gaussian 16:  ES64L-G16RevB.01 20-Dec-2017
                 2-Jul-2024 
 ******************************************
 %nproc=16
 Will use up to   16 processors via shared memory.
 %mem=60GB
 ----------------------------------------------------------------------
 #P PBE1PBE/def2TZVP opt freq EmpiricalDispersion=GD3 Int=(grid=99590) 
 scrf=(iefpcm, solvent=water)
 ----------------------------------------------------------------------
 1/18=20,19=15,26=6,38=1/1,3;
 2/9=110,12=2,17=6,18=5,40=1/2;
 3/5=44,7=101,11=2,25=1,30=1,70=2201,71=1,72=1,74=-13,75=99590,124=31/1,2,3;
 4//1;
 5/5=2,38=5,53=1/2;
 6/7=2,8=2,9=2,10=2,28=1/1;
 7//1,2,3,16;
 1/18=20,19=15,26=6/3(2);
 2/9=110/2;
 99//99;
 2/9=110/2;
 3/5=44,7=101,11=2,25=1,30=1,70=2205,71=1,72=1,74=-13,75=99590,124=31/1,2,3;
 4/5=5,16=3,69=1/1;
 5/5=2,38=5,53=1/2;
 7//1,2,3,16;
 1/18=20,19=15,26=6/3(-5);
 2/9=110/2;
 6/7=2,8=2,9=2,10=2,19=2,28=1/1;
 99/9=1/99;
 Leave Link    1 at Tue Jul  2 17:46:12 2024, MaxMem=  8053063680 cpu:               0.3 elap:               0.0
 (Enter /share/apps/g16.b01_avx2/g16/l101.exe)
 ------------
 Methyl_Amine
 ------------
 Symbolic Z-matrix:
 Charge =  0 Multiplicity = 1
 H                    -3.46477  -0.60078  -4.35239 
 N                    -4.41768  -0.80374  -4.12708 
 H                    -4.76479  -1.50618  -4.74845 
 C                    -5.22498   0.41672  -4.26723 
 H                    -6.2446    0.19955  -4.02615 
 H                    -4.85358   1.16833  -3.60236 
 H                    -5.16439   0.77064  -5.27518 
 
 ITRead=  0  0  0  0  0  0  0
 MicOpt= -1 -1 -1 -1 -1 -1 -1
 NAtoms=      7 NQM=        7 NQMF=       0 NMMI=      0 NMMIF=      0
                NMic=       0 NMicF=      0.
                    Isotopes and Nuclear Properties:
 (Nuclear quadrupole moments (NQMom) in fm**2, nuclear magnetic moments (NMagM)
  in nuclear magnetons)

  Atom         1           2           3           4           5           6           7
 IAtWgt=           1          14           1          12           1           1           1
 AtmWgt=   1.0078250  14.0030740   1.0078250  12.0000000   1.0078250   1.0078250   1.0078250
 NucSpn=           1           2           1           0           1           1           1
 AtZEff=  -0.0000000  -0.0000000  -0.0000000  -0.0000000  -0.0000000  -0.0000000  -0.0000000
 NQMom=    0.0000000   2.0440000   0.0000000   0.0000000   0.0000000   0.0000000   0.0000000
 NMagM=    2.7928460   0.4037610   2.7928460   0.0000000   2.7928460   2.7928460   2.7928460
 AtZNuc=   1.0000000   7.0000000   1.0000000   6.0000000   1.0000000   1.0000000   1.0000000
 Leave Link  101 at Tue Jul  2 17:46:12 2024, MaxMem=  8053063680 cpu:               5.0 elap:               0.3
 (Enter /share/apps/g16.b01_avx2/g16/l103.exe)

 GradGradGradGradGradGradGradGradGradGradGradGradGradGradGradGradGradGrad
 Berny optimization.
 Initialization pass.
                           ----------------------------
                           !    Initial Parameters    !
                           ! (Angstroms and Degrees)  !
 --------------------------                            --------------------------
 ! Name  Definition              Value          Derivative Info.                !
 --------------------------------------------------------------------------------
 ! R1    R(1,2)                  1.0            estimate D2E/DX2                !
 ! R2    R(2,3)                  1.0            estimate D2E/DX2                !
 ! R3    R(2,4)                  1.47           estimate D2E/DX2                !
 ! R4    R(4,5)                  1.07           estimate D2E/DX2                !
 ! R5    R(4,6)                  1.07           estimate D2E/DX2                !
 ! R6    R(4,7)                  1.07           estimate D2E/DX2                !
 ! A1    A(1,2,3)              109.4712         estimate D2E/DX2                !
 ! A2    A(1,2,4)              109.4712         estimate D2E/DX2                !
 ! A3    A(3,2,4)              109.4712         estimate D2E/DX2                !
 ! A4    A(2,4,5)              109.4712         estimate D2E/DX2                !
 ! A5    A(2,4,6)              109.4712         estimate D2E/DX2                !
 ! A6    A(2,4,7)              109.4712         estimate D2E/DX2                !
 ! A7    A(5,4,6)              109.4712         estimate D2E/DX2                !
 ! A8    A(5,4,7)              109.4712         estimate D2E/DX2                !
 ! A9    A(6,4,7)              109.4712         estimate D2E/DX2                !
 ! D1    D(1,2,4,5)           -180.0            estimate D2E/DX2                !
 ! D2    D(1,2,4,6)            -60.0            estimate D2E/DX2                !
 ! D3    D(1,2,4,7)             60.0            estimate D2E/DX2                !
 ! D4    D(3,2,4,5)             60.0            estimate D2E/DX2                !
 ! D5    D(3,2,4,6)            180.0            estimate D2E/DX2                !
 ! D6    D(3,2,4,7)            -60.0            estimate D2E/DX2                !
 --------------------------------------------------------------------------------
 Trust Radius=3.00D-01 FncErr=5.00D-06 GrdErr=5.00D-06 EigMax=2.50D+02 EigMin=1.00D-04
 Number of steps in this run=     31 maximum allowed number of steps=    100.
 GradGradGradGradGradGradGradGradGradGradGradGradGradGradGradGradGradGrad

 Leave Link  103 at Tue Jul  2 17:46:12 2024, MaxMem=  8053063680 cpu:               0.1 elap:               0.0
 (Enter /share/apps/g16.b01_avx2/g16/l202.exe)
                          Input orientation:                          
 ---------------------------------------------------------------------
 Center     Atomic      Atomic             Coordinates (Angstroms)
 Number     Number       Type             X           Y           Z
 ---------------------------------------------------------------------
      1          1           0       -3.464770   -0.600778   -4.352385
      2          7           0       -4.417683   -0.803742   -4.127080
      3          1           0       -4.764788   -1.506181   -4.748448
      4          6           0       -5.224982    0.416720   -4.267228
      5          1           0       -6.244599    0.199548   -4.026151
      6          1           0       -4.853580    1.168330   -3.602365
      7          1           0       -5.164393    0.770644   -5.275179
 ---------------------------------------------------------------------
                    Distance matrix (angstroms):
                    1          2          3          4          5
     1  H    0.000000
     2  N    1.000000   0.000000
     3  H    1.632993   1.000000   0.000000
     4  C    2.034920   1.470000   2.034920   0.000000
     5  H    2.911082   2.086720   2.370879   1.070000   0.000000
     6  H    2.370879   2.086720   2.911082   1.070000   1.747303
     7  H    2.370879   2.086720   2.370879   1.070000   1.747303
                    6          7
     6  H    0.000000
     7  H    1.747303   0.000000
 Stoichiometry    CH5N
 Framework group  CS[SG(CHN),X(H4)]
 Deg. of freedom     9
 Full point group                 CS      NOp   2
 Largest Abelian subgroup         CS      NOp   2
 Largest concise Abelian subgroup CS      NOp   2
                         Standard orientation:                         
 ---------------------------------------------------------------------
 Center     Atomic      Atomic             Coordinates (Angstroms)
 Number     Number       Type             X           Y           Z
 ---------------------------------------------------------------------
      1          1           0        0.419026   -1.090741    0.816497
      2          7           0       -0.052378   -0.757407    0.000000
      3          1           0        0.419026   -1.090741   -0.816497
      4          6           0       -0.052378    0.712593   -0.000000
      5          1           0       -0.556781    1.069259   -0.873651
      6          1           0       -0.556781    1.069259    0.873651
      7          1           0        0.956427    1.069259   -0.000000
 ---------------------------------------------------------------------
 Rotational constants (GHZ):         105.6488178          23.0712497          22.0823964
 Leave Link  202 at Tue Jul  2 17:46:12 2024, MaxMem=  8053063680 cpu:               0.0 elap:               0.0
 (Enter /share/apps/g16.b01_avx2/g16/l301.exe)
 Standard basis: def2TZVP (5D, 7F)
 Ernie: Thresh=  0.10000D-02 Tol=  0.10000D-05 Strict=F.
 There are    67 symmetry adapted cartesian basis functions of A'  symmetry.
 There are    35 symmetry adapted cartesian basis functions of A"  symmetry.
 There are    59 symmetry adapted basis functions of A'  symmetry.
 There are    33 symmetry adapted basis functions of A"  symmetry.
    92 basis functions,   142 primitive gaussians,   102 cartesian basis functions
     9 alpha electrons        9 beta electrons
       nuclear repulsion energy        42.3648738840 Hartrees.
 IExCor= 1009 DFT=T Ex+Corr=PBE1PBE ExCW=0 ScaHFX=  0.250000
 ScaDFX=  0.750000  0.750000  1.000000  1.000000 ScalE2=  1.000000  1.000000
 IRadAn=  99590 IRanWt=     -1 IRanGd=            0 ICorTp=0 IEmpDi=131
 NAtoms=    7 NActive=    7 NUniq=    5 SFac= 1.96D+00 NAtFMM=   60 NAOKFM=F Big=F
 Integral buffers will be    131072 words long.
 Raffenetti 2 integral format.
 Two-electron integral symmetry is turned on.
 R6Disp:  Grimme-D3 Dispersion energy=       -0.0006923676 Hartrees.
 Nuclear repulsion after empirical dispersion term =       42.3641815164 Hartrees.
 ------------------------------------------------------------------------------
 Polarizable Continuum Model (PCM)
 =================================
 Model                : PCM.
 Atomic radii         : UFF (Universal Force Field).
 Polarization charges : Total charges.
 Charge compensation  : None.
 Solution method      : On-the-fly selection.
 Cavity type          : Scaled VdW (van der Waals Surface) (Alpha=1.100).
 Cavity algorithm     : GePol (No added spheres)
                        Default sphere list used, NSphG=    7.
                        Lebedev-Laikov grids with approx.  5.0 points / Ang**2.
                        Smoothing algorithm: York/Karplus (Gamma=1.0000).
                        Polarization charges: spherical gaussians, with
                                              point-specific exponents (IZeta= 3).
                        Self-potential: point-specific (ISelfS= 7).
                        Self-field    : sphere-specific E.n sum rule (ISelfD= 2).
 1st derivatives      : Analytical E(r).r(x)/FMM algorithm (CHGder, D1EAlg=3).
                        Cavity 1st derivative terms included.
 Solvent              : Water, Eps=  78.355300 Eps(inf)=   1.777849
 ------------------------------------------------------------------------------
 Spheres list:
 ISph  on   Nord     Re0    Alpha      Xe            Ye            Ze
    1   H      1    1.4430  1.100      0.419026     -1.090741      0.816497
    2   N      2    1.8300  1.100     -0.052378     -0.757407     -0.000000
    3   H      3    1.4430  1.100      0.419026     -1.090741     -0.816497
    4   C      4    1.9255  1.100     -0.052378      0.712593      0.000000
    5   H      5    1.4430  1.100     -0.556781      1.069259     -0.873651
    6   H      6    1.4430  1.100     -0.556781      1.069259      0.873651
    7   H      7    1.4430  1.100      0.956427      1.069259      0.000000
 ------------------------------------------------------------------------------
 GePol: Number of generator spheres                  =       7
 GePol: Total number of spheres                      =       7
 GePol: Number of exposed spheres                    =       7 (100.00%)
 GePol: Number of points                             =     657
 GePol: Average weight of points                     =       0.14
 GePol: Minimum weight of points                     =   0.10D-06
 GePol: Maximum weight of points                     =    0.20322
 GePol: Number of points with low weight             =      37
 GePol: Fraction of low-weight points (<1% of avg)   =       5.63%
 GePol: Cavity surface area                          =     88.912 Ang**2
 GePol: Cavity volume                                =     70.305 Ang**3
 Leave Link  301 at Tue Jul  2 17:46:12 2024, MaxMem=  8053063680 cpu:               0.3 elap:               0.0
 (Enter /share/apps/g16.b01_avx2/g16/l302.exe)
 NPDir=0 NMtPBC=     1 NCelOv=     1 NCel=       1 NClECP=     1 NCelD=      1
         NCelK=      1 NCelE2=     1 NClLst=     1 CellRange=     0.0.
 One-electron integrals computed using PRISM.
 One-electron integral symmetry used in STVInt
   2 Symmetry operations used in ECPInt.
 ECPInt:  NShTT=     903 NPrTT=    2544 LenC2=     903 LenP2D=    2347.
 LDataN:  DoStor=T MaxTD1= 6 Len=  172
 NBasis=    92 RedAO= T EigKep=  1.08D-03  NBF=    59    33
 NBsUse=    92 1.00D-06 EigRej= -1.00D+00 NBFU=    59    33
 Precomputing XC quadrature grid using
 IXCGrd= 4 IRadAn=       99590 IRanWt=          -1 IRanGd=           0 AccXCQ= 0.00D+00.
 Generated NRdTot=       0 NPtTot=           0 NUsed=           0 NTot=          32
 NSgBfM=   102   102   102   102   102 MxSgAt=     7 MxSgA2=     7.
 Leave Link  302 at Tue Jul  2 17:46:12 2024, MaxMem=  8053063680 cpu:               1.0 elap:               0.1
 (Enter /share/apps/g16.b01_avx2/g16/l303.exe)
 DipDrv:  MaxL=1.
 Leave Link  303 at Tue Jul  2 17:46:12 2024, MaxMem=  8053063680 cpu:               0.3 elap:               0.0
 (Enter /share/apps/g16.b01_avx2/g16/l401.exe)
 ExpMin= 9.52D-02 ExpMax= 1.97D+04 ExpMxC= 6.73D+02 IAcc=4 IRadAn=    199590 AccDes= 0.00D+00
 Harris functional with IExCor= 1009 and IRadAn=  199590 diagonalized for initial guess.
 HarFok:  IExCor= 1009 AccDes= 0.00D+00 IRadAn=    199590 IDoV= 1 UseB2=F ITyADJ=14
 ICtDFT=  3500011 ScaDFX=  1.000000  1.000000  1.000000  1.000000
 FoFCou: FMM=F IPFlag=           0 FMFlag=      100000 FMFlg1=           0
         NFxFlg=           0 DoJE=T BraDBF=F KetDBF=T FulRan=T
         wScrn=  0.000000 ICntrl=       500 IOpCl=  0 I1Cent=   200000004 NGrid=           0
         NMat0=    1 NMatS0=      1 NMatT0=    0 NMatD0=    1 NMtDS0=    0 NMtDT0=    0
 Petite list used in FoFCou.
 Harris En= -95.8394363666491    
 JPrj=0 DoOrth=F DoCkMO=F.
 Initial guess orbital symmetries:
       Occupied  (A') (A') (A') (A') (A") (A') (A') (A") (A')
       Virtual   (A') (A') (A") (A') (A") (A') (A') (A') (A") (A")
                 (A') (A') (A') (A") (A') (A') (A") (A') (A') (A")
                 (A') (A') (A") (A') (A') (A") (A') (A") (A') (A')
                 (A") (A') (A") (A') (A") (A') (A') (A") (A") (A')
                 (A') (A") (A') (A') (A') (A") (A') (A') (A") (A")
                 (A') (A') (A') (A") (A') (A") (A') (A") (A') (A')
                 (A") (A') (A") (A') (A') (A") (A') (A") (A') (A")
                 (A') (A') (A') (A") (A") (A') (A") (A') (A') (A")
                 (A') (A') (A')
 The electronic state of the initial guess is 1-A'.
 Leave Link  401 at Tue Jul  2 17:46:12 2024, MaxMem=  8053063680 cpu:               1.9 elap:               0.1
 (Enter /share/apps/g16.b01_avx2/g16/l502.exe)
 Keep R1 ints in memory in symmetry-blocked form, NReq=23990582.
 FoFCou: FMM=F IPFlag=           0 FMFlag=           0 FMFlg1=           0
         NFxFlg=           0 DoJE=F BraDBF=F KetDBF=F FulRan=T
         wScrn=  0.000000 ICntrl=       600 IOpCl=  0 I1Cent=           0 NGrid=           0
         NMat0=    1 NMatS0=   4278 NMatT0=    0 NMatD0=    1 NMtDS0=    0 NMtDT0=    0
 Petite list used in FoFCou.
 Closed shell SCF:
 Using DIIS extrapolation, IDIIS=  1040.
 NGot=  8053063680 LenX=  8048415939 LenY=  8048405094
 Requested convergence on RMS density matrix=1.00D-08 within 128 cycles.
 Requested convergence on MAX density matrix=1.00D-06.
 Requested convergence on             energy=1.00D-06.
 No special actions if energy rises.

 Cycle   1  Pass 1  IDiag  1:
 Inv3:  Mode=1 IEnd=     1294947.
 Iteration    1 A*A^-1 deviation from unit magnitude is 2.89D-15 for    615.
 Iteration    1 A*A^-1 deviation from orthogonality  is 2.00D-15 for    449    132.
 Iteration    1 A^-1*A deviation from unit magnitude is 2.78D-15 for    615.
 Iteration    1 A^-1*A deviation from orthogonality  is 2.22D-15 for    452    209.
 E= -95.6800203968770    
 DIIS: error= 4.23D-02 at cycle   1 NSaved=   1.
 NSaved= 1 IEnMin= 1 EnMin= -95.6800203968770     IErMin= 1 ErrMin= 4.23D-02
 ErrMax= 4.23D-02  0.00D+00 EMaxC= 1.00D-01 BMatC= 1.14D-01 BMatP= 1.14D-01
 IDIUse=3 WtCom= 5.77D-01 WtEn= 4.23D-01
 Coeff-Com:  0.100D+01
 Coeff-En:   0.100D+01
 Coeff:      0.100D+01
 Gap=     0.214 Goal=   None    Shift=    0.000
 GapD=    0.214 DampG=1.000 DampE=0.500 DampFc=0.5000 IDamp=-1.
 Damping current iteration by 5.00D-01
 RMSDP=5.10D-03 MaxDP=1.16D-01              OVMax= 1.81D-01

 Cycle   2  Pass 1  IDiag  1:
 E= -95.7235273925827     Delta-E=       -0.043506995706 Rises=F Damp=T
 DIIS: error= 7.52D-03 at cycle   2 NSaved=   2.
 NSaved= 2 IEnMin= 2 EnMin= -95.7235273925827     IErMin= 2 ErrMin= 7.52D-03
 ErrMax= 7.52D-03  0.00D+00 EMaxC= 1.00D-01 BMatC= 5.53D-03 BMatP= 1.14D-01
 IDIUse=3 WtCom= 9.25D-01 WtEn= 7.52D-02
 Coeff-Com:  0.704D-01 0.930D+00
 Coeff-En:   0.142D+00 0.858D+00
 Coeff:      0.758D-01 0.924D+00
 Gap=     0.304 Goal=   None    Shift=    0.000
 RMSDP=7.47D-04 MaxDP=1.46D-02 DE=-4.35D-02 OVMax= 1.06D-01

 Cycle   3  Pass 1  IDiag  1:
 E= -95.7789175102684     Delta-E=       -0.055390117686 Rises=F Damp=F
 DIIS: error= 4.17D-03 at cycle   3 NSaved=   3.
 NSaved= 3 IEnMin= 3 EnMin= -95.7789175102684     IErMin= 3 ErrMin= 4.17D-03
 ErrMax= 4.17D-03  0.00D+00 EMaxC= 1.00D-01 BMatC= 1.23D-03 BMatP= 5.53D-03
 IDIUse=3 WtCom= 9.58D-01 WtEn= 4.17D-02
 Coeff-Com: -0.140D-01 0.272D+00 0.742D+00
 Coeff-En:   0.000D+00 0.000D+00 0.100D+01
 Coeff:     -0.135D-01 0.260D+00 0.753D+00
 Gap=     0.300 Goal=   None    Shift=    0.000
 RMSDP=2.83D-04 MaxDP=5.80D-03 DE=-5.54D-02 OVMax= 1.21D-02

 Cycle   4  Pass 1  IDiag  1:
 E= -95.7796218220942     Delta-E=       -0.000704311826 Rises=F Damp=F
 DIIS: error= 2.03D-03 at cycle   4 NSaved=   4.
 NSaved= 4 IEnMin= 4 EnMin= -95.7796218220942     IErMin= 4 ErrMin= 2.03D-03
 ErrMax= 2.03D-03  0.00D+00 EMaxC= 1.00D-01 BMatC= 3.66D-04 BMatP= 1.23D-03
 IDIUse=3 WtCom= 9.80D-01 WtEn= 2.03D-02
 Coeff-Com: -0.109D-01 0.566D-01 0.381D+00 0.574D+00
 Coeff-En:   0.000D+00 0.000D+00 0.210D+00 0.790D+00
 Coeff:     -0.107D-01 0.554D-01 0.377D+00 0.578D+00
 Gap=     0.302 Goal=   None    Shift=    0.000
 RMSDP=1.08D-04 MaxDP=2.15D-03 DE=-7.04D-04 OVMax= 5.13D-03

 Cycle   5  Pass 1  IDiag  1:
 E= -95.7799244771477     Delta-E=       -0.000302655054 Rises=F Damp=F
 DIIS: error= 2.96D-04 at cycle   5 NSaved=   5.
 NSaved= 5 IEnMin= 5 EnMin= -95.7799244771477     IErMin= 5 ErrMin= 2.96D-04
 ErrMax= 2.96D-04  0.00D+00 EMaxC= 1.00D-01 BMatC= 6.25D-06 BMatP= 3.66D-04
 IDIUse=3 WtCom= 9.97D-01 WtEn= 2.96D-03
 Coeff-Com: -0.239D-02 0.446D-02 0.881D-01 0.193D+00 0.717D+00
 Coeff-En:   0.000D+00 0.000D+00 0.000D+00 0.000D+00 0.100D+01
 Coeff:     -0.238D-02 0.445D-02 0.879D-01 0.193D+00 0.717D+00
 Gap=     0.302 Goal=   None    Shift=    0.000
 RMSDP=1.41D-05 MaxDP=1.93D-04 DE=-3.03D-04 OVMax= 5.99D-04

 Cycle   6  Pass 1  IDiag  1:
 E= -95.7799295108359     Delta-E=       -0.000005033688 Rises=F Damp=F
 DIIS: error= 1.12D-05 at cycle   6 NSaved=   6.
 NSaved= 6 IEnMin= 6 EnMin= -95.7799295108359     IErMin= 6 ErrMin= 1.12D-05
 ErrMax= 1.12D-05  0.00D+00 EMaxC= 1.00D-01 BMatC= 9.36D-09 BMatP= 6.25D-06
 IDIUse=1 WtCom= 1.00D+00 WtEn= 0.00D+00
 Coeff-Com:  0.268D-03-0.748D-03-0.334D-02-0.485D-02 0.972D-02 0.999D+00
 Coeff:      0.268D-03-0.748D-03-0.334D-02-0.485D-02 0.972D-02 0.999D+00
 Gap=     0.302 Goal=   None    Shift=    0.000
 RMSDP=1.28D-06 MaxDP=1.63D-05 DE=-5.03D-06 OVMax= 3.82D-05

 Cycle   7  Pass 1  IDiag  1:
 E= -95.7799295196550     Delta-E=       -0.000000008819 Rises=F Damp=F
 DIIS: error= 1.70D-06 at cycle   7 NSaved=   7.
 NSaved= 7 IEnMin= 7 EnMin= -95.7799295196550     IErMin= 7 ErrMin= 1.70D-06
 ErrMax= 1.70D-06  0.00D+00 EMaxC= 1.00D-01 BMatC= 2.44D-10 BMatP= 9.36D-09
 IDIUse=1 WtCom= 1.00D+00 WtEn= 0.00D+00
 Coeff-Com:  0.523D-04-0.131D-03-0.116D-02-0.169D-02-0.426D-02 0.136D+00
 Coeff-Com:  0.871D+00
 Coeff:      0.523D-04-0.131D-03-0.116D-02-0.169D-02-0.426D-02 0.136D+00
 Coeff:      0.871D+00
 Gap=     0.302 Goal=   None    Shift=    0.000
 RMSDP=1.42D-07 MaxDP=2.04D-06 DE=-8.82D-09 OVMax= 5.14D-06

 Cycle   8  Pass 1  IDiag  1:
 E= -95.7799295199037     Delta-E=       -0.000000000249 Rises=F Damp=F
 DIIS: error= 2.37D-07 at cycle   8 NSaved=   8.
 NSaved= 8 IEnMin= 8 EnMin= -95.7799295199037     IErMin= 8 ErrMin= 2.37D-07
 ErrMax= 2.37D-07  0.00D+00 EMaxC= 1.00D-01 BMatC= 3.60D-12 BMatP= 2.44D-10
 IDIUse=1 WtCom= 1.00D+00 WtEn= 0.00D+00
 Coeff-Com: -0.517D-06 0.526D-06-0.667D-04-0.573D-04-0.645D-03-0.679D-02
 Coeff-Com:  0.102D+00 0.905D+00
 Coeff:     -0.517D-06 0.526D-06-0.667D-04-0.573D-04-0.645D-03-0.679D-02
 Coeff:      0.102D+00 0.905D+00
 Gap=     0.302 Goal=   None    Shift=    0.000
 RMSDP=2.61D-08 MaxDP=3.08D-07 DE=-2.49D-10 OVMax= 7.63D-07

 Cycle   9  Pass 1  IDiag  1:
 E= -95.7799295199072     Delta-E=       -0.000000000003 Rises=F Damp=F
 DIIS: error= 4.55D-08 at cycle   9 NSaved=   9.
 NSaved= 9 IEnMin= 9 EnMin= -95.7799295199072     IErMin= 9 ErrMin= 4.55D-08
 ErrMax= 4.55D-08  0.00D+00 EMaxC= 1.00D-01 BMatC= 1.19D-13 BMatP= 3.60D-12
 IDIUse=1 WtCom= 1.00D+00 WtEn= 0.00D+00
 Coeff-Com: -0.116D-05 0.243D-05 0.789D-05 0.153D-04-0.391D-04-0.414D-02
 Coeff-Com:  0.107D-02 0.176D+00 0.827D+00
 Coeff:     -0.116D-05 0.243D-05 0.789D-05 0.153D-04-0.391D-04-0.414D-02
 Coeff:      0.107D-02 0.176D+00 0.827D+00
 Gap=     0.302 Goal=   None    Shift=    0.000
 RMSDP=3.81D-09 MaxDP=3.65D-08 DE=-3.50D-12 OVMax= 1.23D-07

 Error on total polarization charges =  0.00817
 SCF Done:  E(RPBE1PBE) =  -95.7799295199     A.U. after    9 cycles
            NFock=  9  Conv=0.38D-08     -V/T= 2.0038
 KE= 9.541725574638D+01 PE=-3.077219509559D+02 EE= 7.416058417325D+01
 Leave Link  502 at Tue Jul  2 17:46:13 2024, MaxMem=  8053063680 cpu:              14.2 elap:               0.9
 (Enter /share/apps/g16.b01_avx2/g16/l601.exe)
 Copying SCF densities to generalized density rwf, IOpCl= 0 IROHF=0.

 **********************************************************************

            Population analysis using the SCF Density.

 **********************************************************************

 Orbital symmetries:
       Occupied  (A') (A') (A') (A') (A") (A') (A') (A") (A')
       Virtual   (A') (A') (A") (A') (A") (A') (A') (A") (A') (A")
                 (A') (A') (A') (A") (A') (A') (A") (A') (A') (A')
                 (A") (A') (A") (A') (A') (A") (A") (A') (A') (A')
                 (A") (A") (A') (A') (A") (A') (A') (A") (A") (A')
                 (A') (A") (A') (A') (A') (A") (A') (A") (A') (A")
                 (A') (A') (A') (A") (A') (A") (A') (A") (A') (A')
                 (A") (A') (A") (A') (A') (A") (A') (A") (A') (A")
                 (A') (A') (A') (A") (A") (A') (A") (A') (A') (A")
                 (A') (A') (A')
 The electronic state is 1-A'.
 Alpha  occ. eigenvalues --  -14.35422 -10.22374  -0.89982  -0.68085  -0.50983
 Alpha  occ. eigenvalues --   -0.44808  -0.41889  -0.38511  -0.25158
 Alpha virt. eigenvalues --    0.05034   0.09445   0.11627   0.13968   0.14769
 Alpha virt. eigenvalues --    0.17456   0.23519   0.25446   0.28785   0.35162
 Alpha virt. eigenvalues --    0.37514   0.40274   0.44409   0.49080   0.49932
 Alpha virt. eigenvalues --    0.52424   0.54828   0.55448   0.60694   0.71761
 Alpha virt. eigenvalues --    0.71772   0.91042   0.91901   1.01670   1.18767
 Alpha virt. eigenvalues --    1.23686   1.29118   1.31626   1.40822   1.50008
 Alpha virt. eigenvalues --    1.54444   1.55471   1.55565   1.68382   1.71476
 Alpha virt. eigenvalues --    1.85948   1.90994   1.92003   1.97426   1.98986
 Alpha virt. eigenvalues --    2.00958   2.05146   2.12877   2.23416   2.35639
 Alpha virt. eigenvalues --    2.35817   2.41046   2.54215   2.56997   2.61836
 Alpha virt. eigenvalues --    2.62956   2.74396   2.76163   2.78476   2.96930
 Alpha virt. eigenvalues --    2.98867   3.02749   3.11810   3.21157   3.31922
 Alpha virt. eigenvalues --    3.37020   3.50871   3.53075   3.54456   3.79601
 Alpha virt. eigenvalues --    3.89072   4.12920   4.16079   4.36720   4.39120
 Alpha virt. eigenvalues --    4.44612   4.67033   4.81911   4.82543   4.90914
 Alpha virt. eigenvalues --    5.06403   5.09647   5.11197   5.24497   5.50748
 Alpha virt. eigenvalues --    5.84021  22.47280  31.91005
          Condensed to atoms (all electrons):
               1          2          3          4          5          6
     1  H    0.463719   0.374297  -0.032035  -0.040977   0.008210  -0.005985
     2  N    0.374297   6.681585   0.374297   0.286115  -0.033742  -0.033742
     3  H   -0.032035   0.374297   0.463719  -0.040977  -0.005985   0.008210
     4  C   -0.040977   0.286115  -0.040977   4.805039   0.407591   0.407591
     5  H    0.008210  -0.033742  -0.005985   0.407591   0.550943  -0.020414
     6  H   -0.005985  -0.033742   0.008210   0.407591  -0.020414   0.550943
     7  H   -0.005781  -0.063848  -0.005781   0.443711  -0.036327  -0.036327
               7
     1  H   -0.005781
     2  N   -0.063848
     3  H   -0.005781
     4  C    0.443711
     5  H   -0.036327
     6  H   -0.036327
     7  H    0.587854
 Mulliken charges:
               1
     1  H    0.238553
     2  N   -0.584961
     3  H    0.238553
     4  C   -0.268093
     5  H    0.129725
     6  H    0.129725
     7  H    0.116499
 Sum of Mulliken charges =  -0.00000
 Mulliken charges with hydrogens summed into heavy atoms:
               1
     2  N   -0.107855
     4  C    0.107855
 Electronic spatial extent (au):  <R**2>=             93.9700
 Charge=             -0.0000 electrons
 Dipole moment (field-independent basis, Debye):
    X=              1.6177    Y=              0.5135    Z=              0.0000  Tot=              1.6972
 Quadrupole moment (field-independent basis, Debye-Ang):
   XX=            -14.9618   YY=            -14.4022   ZZ=            -12.2368
   XY=             -2.3499   XZ=              0.0000   YZ=             -0.0000
 Traceless Quadrupole moment (field-independent basis, Debye-Ang):
   XX=             -1.0949   YY=             -0.5353   ZZ=              1.6302
   XY=             -2.3499   XZ=              0.0000   YZ=             -0.0000
 Octapole moment (field-independent basis, Debye-Ang**2):
  XXX=              2.1662  YYY=             -1.6731  ZZZ=              0.0000  XYY=              2.6938
  XXY=              0.5850  XXZ=              0.0000  XZZ=              0.6808  YZZ=             -1.8866
  YYZ=              0.0000  XYZ=             -0.0000
 Hexadecapole moment (field-independent basis, Debye-Ang**3):
 XXXX=            -24.4213 YYYY=            -76.5321 ZZZZ=            -22.5599 XXXY=              0.6700
 XXXZ=             -0.0000 YYYX=             -2.3979 YYYZ=             -0.0000 ZZZX=              0.0000
 ZZZY=             -0.0000 XXYY=            -17.1561 XXZZ=             -7.5806 YYZZ=            -14.2140
 XXYZ=             -0.0000 YYXZ=              0.0000 ZZXY=             -1.5660
 N-N= 4.236418151640D+01 E-N=-3.077219508572D+02  KE= 9.541725574638D+01
 Symmetry A'   KE= 9.066340899266D+01
 Symmetry A"   KE= 4.753846753724D+00
 No NMR shielding tensors so no spin-rotation constants.
 Leave Link  601 at Tue Jul  2 17:46:13 2024, MaxMem=  8053063680 cpu:               0.8 elap:               0.1
 (Enter /share/apps/g16.b01_avx2/g16/l701.exe)
 ... and contract with generalized density number  0.
 Compute integral first derivatives.
 R6Disp: Adding Grimme-D3 dispersion energy 1st derivatives to the gradient.
   2 Symmetry operations used in ECPInt.
 ECPInt:  NShTT=     903 NPrTT=    2544 LenC2=     903 LenP2D=    2347.
 LDataN:  DoStor=T MaxTD1= 7 Len=  274
 D1PCM: PCM CHGder 1st derivatives, ID1Alg=3 FixD1E=F DoIter=F DoCFld=F I1PDM=0.
 GePol: Maximum number of non-zero 1st derivatives   =     259
 Leave Link  701 at Tue Jul  2 17:46:13 2024, MaxMem=  8053063680 cpu:               3.3 elap:               0.2
 (Enter /share/apps/g16.b01_avx2/g16/l702.exe)
 L702 exits ... SP integral derivatives will be done elsewhere.
 Leave Link  702 at Tue Jul  2 17:46:13 2024, MaxMem=  8053063680 cpu:               0.2 elap:               0.0
 (Enter /share/apps/g16.b01_avx2/g16/l703.exe)
 Integral derivatives from FoFJK, PRISM(SPDF).
 Compute integral first derivatives, UseDBF=F ICtDFT=           0.
 Calling FoFJK, ICntrl=      2127 FMM=F ISym2X=1 I1Cent= 0 IOpClX= 0 NMat=1 NMatS=1 NMatT=0.
 FoFJK:  IHMeth= 1 ICntrl=    2127 DoSepK=F KAlg= 0 I1Cent=           0 FoldK=F
 IRaf=         0 NMat=       1 IRICut=       1 DoRegI=T DoRafI=F ISym2E= 1 IDoP0=0 IntGTp=1.
 FoFCou: FMM=F IPFlag=           0 FMFlag=      100000 FMFlg1=         800
         NFxFlg=           0 DoJE=F BraDBF=F KetDBF=F FulRan=T
         wScrn=  0.000000 ICntrl=      2127 IOpCl=  0 I1Cent=           0 NGrid=           0
         NMat0=    1 NMatS0=      1 NMatT0=    0 NMatD0=    1 NMtDS0=    0 NMtDT0=    0
 Petite list used in FoFCou.
 Leave Link  703 at Tue Jul  2 17:46:14 2024, MaxMem=  8053063680 cpu:               4.0 elap:               0.3
 (Enter /share/apps/g16.b01_avx2/g16/l716.exe)
 Dipole        = 6.36432864D-01 2.02042244D-01 3.75432630D-16
 ***** Axes restored to original set *****
 -------------------------------------------------------------------
 Center     Atomic                   Forces (Hartrees/Bohr)
 Number     Number              X              Y              Z
 -------------------------------------------------------------------
      1        1           0.009206970   -0.001007726   -0.005378523
      2        7          -0.011603164    0.008300725    0.019110155
      3        1           0.000503423   -0.007069354   -0.008030138
      4        6           0.016616660   -0.022343019   -0.003465365
      5        1          -0.013913852   -0.001532332    0.003907992
      6        1           0.003566011    0.010641605    0.009233393
      7        1          -0.004376048    0.013010101   -0.015377514
 -------------------------------------------------------------------
 Cartesian Forces:  Max     0.022343019 RMS     0.010763259
 Leave Link  716 at Tue Jul  2 17:46:14 2024, MaxMem=  8053063680 cpu:               0.2 elap:               0.0
 (Enter /share/apps/g16.b01_avx2/g16/l103.exe)

 GradGradGradGradGradGradGradGradGradGradGradGradGradGradGradGradGradGrad
 Berny optimization.
 FormGI is forming the generalized inverse of G from B-inverse, IUseBI=4.
 Internal  Forces:  Max     0.018541010 RMS     0.007667584
 Search for a local minimum.
 Step number   1 out of a maximum of   31
 All quantities printed in internal units (Hartrees-Bohrs-Radians)
 RMS Force = .76676D-02 SwitMx=.10000D-02 MixMth= 1
 Mixed Optimization -- RFO/linear search
 Second derivative matrix not updated -- first step.
 ITU=  0
     Eigenvalues ---    0.00766   0.04248   0.07537   0.07537   0.16000
     Eigenvalues ---    0.16000   0.16000   0.16000   0.16000   0.35740
     Eigenvalues ---    0.37230   0.37230   0.37230   0.47688   0.47688
 RFO step:  Lambda=-4.44871690D-03 EMin= 7.65814532D-03
 Linear search not attempted -- first point.
 Iteration  1 RMS(Cart)=  0.03479995 RMS(Int)=  0.00108188
 Iteration  2 RMS(Cart)=  0.00085938 RMS(Int)=  0.00030241
 Iteration  3 RMS(Cart)=  0.00000109 RMS(Int)=  0.00030241
 Iteration  4 RMS(Cart)=  0.00000000 RMS(Int)=  0.00030241
 ITry= 1 IFail=0 DXMaxC= 1.06D-01 DCOld= 1.00D+10 DXMaxT= 3.00D-01 DXLimC= 3.00D+00 Rises=F
 ClnCor:  largest displacement from symmetrization is 1.17D-12 for atom     3.
 Variable       Old X    -DE/DX   Delta X   Delta X   Delta X     New X
                                 (Linear)    (Quad)   (Total)
    R1        1.88973   0.00978   0.00000   0.02032   0.02032   1.91005
    R2        1.88973   0.00978   0.00000   0.02032   0.02032   1.91005
    R3        2.77790  -0.00068   0.00000  -0.00188  -0.00188   2.77601
    R4        2.02201   0.01445   0.00000   0.03836   0.03836   2.06036
    R5        2.02201   0.01445   0.00000   0.03836   0.03836   2.06036
    R6        2.02201   0.01854   0.00000   0.04921   0.04921   2.07122
    A1        1.91063  -0.00405   0.00000  -0.04319  -0.04325   1.86738
    A2        1.91063   0.00222   0.00000   0.00424   0.00421   1.91485
    A3        1.91063   0.00222   0.00000   0.00424   0.00421   1.91485
    A4        1.91063  -0.00093   0.00000  -0.00966  -0.01019   1.90044
    A5        1.91063  -0.00093   0.00000  -0.00966  -0.01019   1.90044
    A6        1.91063   0.01349   0.00000   0.09006   0.08941   2.00005
    A7        1.91063  -0.00219   0.00000  -0.02940  -0.02978   1.88085
    A8        1.91063  -0.00472   0.00000  -0.02068  -0.02129   1.88934
    A9        1.91063  -0.00472   0.00000  -0.02068  -0.02129   1.88934
    D1        3.14159   0.00079   0.00000   0.00006   0.00015  -3.14144
    D2       -1.04720  -0.00303   0.00000  -0.04777  -0.04783  -1.09503
    D3        1.04720  -0.00112   0.00000  -0.02385  -0.02384   1.02336
    D4        1.04720   0.00303   0.00000   0.04777   0.04783   1.09503
    D5        3.14159  -0.00079   0.00000  -0.00006  -0.00015   3.14144
    D6       -1.04720   0.00112   0.00000   0.02385   0.02384  -1.02336
         Item               Value     Threshold  Converged?
 Maximum Force            0.018541     0.000450     NO 
 RMS     Force            0.007668     0.000300     NO 
 Maximum Displacement     0.105693     0.001800     NO 
 RMS     Displacement     0.034754     0.001200     NO 
 Predicted change in Energy=-2.278108D-03
 Lowest energy point so far.  Saving SCF results.
 GradGradGradGradGradGradGradGradGradGradGradGradGradGradGradGradGradGrad

 Leave Link  103 at Tue Jul  2 17:46:14 2024, MaxMem=  8053063680 cpu:               0.1 elap:               0.0
 (Enter /share/apps/g16.b01_avx2/g16/l202.exe)
                          Input orientation:                          
 ---------------------------------------------------------------------
 Center     Atomic      Atomic             Coordinates (Angstroms)
 Number     Number       Type             X           Y           Z
 ---------------------------------------------------------------------
      1          1           0       -3.454104   -0.625367   -4.347803
      2          7           0       -4.418567   -0.810501   -4.108726
      3          1           0       -4.747703   -1.526301   -4.741910
      4          6           0       -5.215759    0.410852   -4.284087
      5          1           0       -6.252303    0.196313   -4.022749
      6          1           0       -4.849978    1.172970   -3.595518
      7          1           0       -5.196380    0.826575   -5.298044
 ---------------------------------------------------------------------
                    Distance matrix (angstroms):
                    1          2          3          4          5
     1  H    0.000000
     2  N    1.010753   0.000000
     3  H    1.624931   1.010753   0.000000
     4  C    2.044808   1.469003   2.044808   0.000000
     5  H    2.934406   2.093718   2.397585   1.090297   0.000000
     6  H    2.397585   2.093718   2.934406   1.090297   1.761505
     7  H    2.458988   2.167829   2.458988   1.096042   1.771603
                    6          7
     6  H    0.000000
     7  H    1.771603   0.000000
 Stoichiometry    CH5N
 Framework group  CS[SG(CHN),X(H4)]
 Deg. of freedom     9
 Full point group                 CS      NOp   2
 RotChk:  IX=0 Diff= 3.53D-02
 Largest Abelian subgroup         CS      NOp   2
 Largest concise Abelian subgroup CS      NOp   2
                         Standard orientation:                         
 ---------------------------------------------------------------------
 Center     Atomic      Atomic             Coordinates (Angstroms)
 Number     Number       Type             X           Y           Z
 ---------------------------------------------------------------------
      1          1           0        0.444546   -1.102107    0.812466
      2          7           0       -0.050721   -0.761178    0.000000
      3          1           0        0.444546   -1.102107   -0.812466
      4          6           0       -0.050721    0.707825   -0.000000
      5          1           0       -0.587802    1.060764   -0.880752
      6          1           0       -0.587802    1.060764    0.880752
      7          1           0        0.945886    1.163986   -0.000000
 ---------------------------------------------------------------------
 Rotational constants (GHZ):         103.4907017          22.7447483          21.8546944
 Leave Link  202 at Tue Jul  2 17:46:14 2024, MaxMem=  8053063680 cpu:               0.0 elap:               0.0
 (Enter /share/apps/g16.b01_avx2/g16/l301.exe)
 Standard basis: def2TZVP (5D, 7F)
 Ernie: Thresh=  0.10000D-02 Tol=  0.10000D-05 Strict=F.
 There are    67 symmetry adapted cartesian basis functions of A'  symmetry.
 There are    35 symmetry adapted cartesian basis functions of A"  symmetry.
 There are    59 symmetry adapted basis functions of A'  symmetry.
 There are    33 symmetry adapted basis functions of A"  symmetry.
    92 basis functions,   142 primitive gaussians,   102 cartesian basis functions
     9 alpha electrons        9 beta electrons
       nuclear repulsion energy        41.9889627780 Hartrees.
 IExCor= 1009 DFT=T Ex+Corr=PBE1PBE ExCW=0 ScaHFX=  0.250000
 ScaDFX=  0.750000  0.750000  1.000000  1.000000 ScalE2=  1.000000  1.000000
 IRadAn=  99590 IRanWt=     -1 IRanGd=            0 ICorTp=0 IEmpDi=131
 NAtoms=    7 NActive=    7 NUniq=    5 SFac= 1.96D+00 NAtFMM=   60 NAOKFM=F Big=F
 Integral buffers will be    131072 words long.
 Raffenetti 2 integral format.
 Two-electron integral symmetry is turned on.
 R6Disp:  Grimme-D3 Dispersion energy=       -0.0007227572 Hartrees.
 Nuclear repulsion after empirical dispersion term =       41.9882400208 Hartrees.
 ------------------------------------------------------------------------------
 Polarizable Continuum Model (PCM)
 =================================
 Model                : PCM.
 Atomic radii         : UFF (Universal Force Field).
 Polarization charges : Total charges.
 Charge compensation  : None.
 Solution method      : On-the-fly selection.
 Cavity type          : Scaled VdW (van der Waals Surface) (Alpha=1.100).
 Cavity algorithm     : GePol (No added spheres)
                        Default sphere list used, NSphG=    7.
                        Lebedev-Laikov grids with approx.  5.0 points / Ang**2.
                        Smoothing algorithm: York/Karplus (Gamma=1.0000).
                        Polarization charges: spherical gaussians, with
                                              point-specific exponents (IZeta= 3).
                        Self-potential: point-specific (ISelfS= 7).
                        Self-field    : sphere-specific E.n sum rule (ISelfD= 2).
 1st derivatives      : Analytical E(r).r(x)/FMM algorithm (CHGder, D1EAlg=3).
                        Cavity 1st derivative terms included.
 Solvent              : Water, Eps=  78.355300 Eps(inf)=   1.777849
 ------------------------------------------------------------------------------
 Spheres list:
 ISph  on   Nord     Re0    Alpha      Xe            Ye            Ze
    1   H      1    1.4430  1.100      0.444546     -1.102107      0.812466
    2   N      2    1.8300  1.100     -0.050721     -0.761178      0.000000
    3   H      3    1.4430  1.100      0.444546     -1.102107     -0.812466
    4   C      4    1.9255  1.100     -0.050721      0.707825     -0.000000
    5   H      5    1.4430  1.100     -0.587802      1.060764     -0.880752
    6   H      6    1.4430  1.100     -0.587802      1.060764      0.880752
    7   H      7    1.4430  1.100      0.945886      1.163986     -0.000000
 ------------------------------------------------------------------------------
 GePol: Number of generator spheres                  =       7
 GePol: Total number of spheres                      =       7
 GePol: Number of exposed spheres                    =       7 (100.00%)
 GePol: Number of points                             =     666
 GePol: Average weight of points                     =       0.13
 GePol: Minimum weight of points                     =   0.52D-07
 GePol: Maximum weight of points                     =    0.20570
 GePol: Number of points with low weight             =      41
 GePol: Fraction of low-weight points (<1% of avg)   =       6.16%
 GePol: Cavity surface area                          =     89.830 Ang**2
 GePol: Cavity volume                                =     71.018 Ang**3
 Leave Link  301 at Tue Jul  2 17:46:14 2024, MaxMem=  8053063680 cpu:               0.4 elap:               0.0
 (Enter /share/apps/g16.b01_avx2/g16/l302.exe)
 NPDir=0 NMtPBC=     1 NCelOv=     1 NCel=       1 NClECP=     1 NCelD=      1
         NCelK=      1 NCelE2=     1 NClLst=     1 CellRange=     0.0.
 One-electron integrals computed using PRISM.
 One-electron integral symmetry used in STVInt
   2 Symmetry operations used in ECPInt.
 ECPInt:  NShTT=     903 NPrTT=    2544 LenC2=     903 LenP2D=    2345.
 LDataN:  DoStor=T MaxTD1= 6 Len=  172
 NBasis=    92 RedAO= T EigKep=  1.18D-03  NBF=    59    33
 NBsUse=    92 1.00D-06 EigRej= -1.00D+00 NBFU=    59    33
 Precomputing XC quadrature grid using
 IXCGrd= 4 IRadAn=       99590 IRanWt=          -1 IRanGd=           0 AccXCQ= 0.00D+00.
 Generated NRdTot=       0 NPtTot=           0 NUsed=           0 NTot=          32
 NSgBfM=   102   102   102   102   102 MxSgAt=     7 MxSgA2=     7.
 Leave Link  302 at Tue Jul  2 17:46:14 2024, MaxMem=  8053063680 cpu:               1.2 elap:               0.1
 (Enter /share/apps/g16.b01_avx2/g16/l303.exe)
 DipDrv:  MaxL=1.
 Leave Link  303 at Tue Jul  2 17:46:14 2024, MaxMem=  8053063680 cpu:               0.3 elap:               0.0
 (Enter /share/apps/g16.b01_avx2/g16/l401.exe)
 Initial guess from the checkpoint file:  "/scratch/Gau-315969.chk"
 B after Tr=     0.000000   -0.000000    0.000000
         Rot=    0.999971    0.000000   -0.000000   -0.007640 Ang=  -0.88 deg.
 Guess basis will be translated and rotated to current coordinates.
 JPrj=2 DoOrth=T DoCkMO=T.
 Initial guess orbital symmetries:
       Occupied  (A') (A') (A') (A') (A") (A') (A') (A") (A')
       Virtual   (A') (A') (A") (A') (A") (A') (A') (A") (A') (A")
                 (A') (A') (A') (A") (A') (A') (A") (A') (A') (A')
                 (A") (A') (A") (A') (A') (A") (A") (A') (A') (A')
                 (A") (A") (A') (A') (A") (A') (A') (A") (A") (A')
                 (A') (A") (A') (A') (A') (A") (A') (A") (A') (A")
                 (A') (A') (A') (A") (A') (A") (A') (A") (A') (A')
                 (A") (A') (A") (A') (A') (A") (A') (A") (A') (A")
                 (A') (A') (A') (A") (A") (A') (A") (A') (A') (A")
                 (A') (A') (A')
 The electronic state of the initial guess is 1-A'.
 Generating alternative initial guess.
 ExpMin= 9.52D-02 ExpMax= 1.97D+04 ExpMxC= 6.73D+02 IAcc=4 IRadAn=    199590 AccDes= 0.00D+00
 Harris functional with IExCor= 1009 and IRadAn=  199590 diagonalized for initial guess.
 HarFok:  IExCor= 1009 AccDes= 0.00D+00 IRadAn=    199590 IDoV= 1 UseB2=F ITyADJ=14
 ICtDFT=  3500011 ScaDFX=  1.000000  1.000000  1.000000  1.000000
 FoFCou: FMM=F IPFlag=           0 FMFlag=      100000 FMFlg1=           0
         NFxFlg=           0 DoJE=T BraDBF=F KetDBF=T FulRan=T
         wScrn=  0.000000 ICntrl=       500 IOpCl=  0 I1Cent=   200000004 NGrid=           0
         NMat0=    1 NMatS0=      1 NMatT0=    0 NMatD0=    1 NMtDS0=    0 NMtDT0=    0
 Petite list used in FoFCou.
 Harris En= -95.8355434457271    
 Leave Link  401 at Tue Jul  2 17:46:14 2024, MaxMem=  8053063680 cpu:               2.2 elap:               0.1
 (Enter /share/apps/g16.b01_avx2/g16/l502.exe)
 Keep R1 ints in memory in symmetry-blocked form, NReq=23990582.
 FoFCou: FMM=F IPFlag=           0 FMFlag=           0 FMFlg1=           0
         NFxFlg=           0 DoJE=F BraDBF=F KetDBF=F FulRan=T
         wScrn=  0.000000 ICntrl=       600 IOpCl=  0 I1Cent=           0 NGrid=           0
         NMat0=    1 NMatS0=   4278 NMatT0=    0 NMatD0=    1 NMtDS0=    0 NMtDT0=    0
 Petite list used in FoFCou.
 Closed shell SCF:
 Using DIIS extrapolation, IDIIS=  1040.
 NGot=  8053063680 LenX=  8048415939 LenY=  8048405094
 Requested convergence on RMS density matrix=1.00D-08 within 128 cycles.
 Requested convergence on MAX density matrix=1.00D-06.
 Requested convergence on             energy=1.00D-06.
 No special actions if energy rises.

 Cycle   1  Pass 1  IDiag  1:
 Inv3:  Mode=1 IEnd=     1330668.
 Iteration    1 A*A^-1 deviation from unit magnitude is 2.66D-15 for    201.
 Iteration    1 A*A^-1 deviation from orthogonality  is 1.52D-15 for    560     21.
 Iteration    1 A^-1*A deviation from unit magnitude is 2.66D-15 for    385.
 Iteration    1 A^-1*A deviation from orthogonality  is 1.69D-15 for    570     49.
 E= -95.7815450980762    
 DIIS: error= 2.20D-03 at cycle   1 NSaved=   1.
 NSaved= 1 IEnMin= 1 EnMin= -95.7815450980762     IErMin= 1 ErrMin= 2.20D-03
 ErrMax= 2.20D-03  0.00D+00 EMaxC= 1.00D-01 BMatC= 6.96D-04 BMatP= 6.96D-04
 IDIUse=3 WtCom= 9.78D-01 WtEn= 2.20D-02
 Coeff-Com:  0.100D+01
 Coeff-En:   0.100D+01
 Coeff:      0.100D+01
 Gap=     0.312 Goal=   None    Shift=    0.000
 GapD=    0.312 DampG=1.000 DampE=1.000 DampFc=1.0000 IDamp=-1.
 RMSDP=4.18D-04 MaxDP=7.68D-03              OVMax= 1.07D-02

 Cycle   2  Pass 1  IDiag  1:
 E= -95.7822057575779     Delta-E=       -0.000660659502 Rises=F Damp=F
 DIIS: error= 1.29D-03 at cycle   2 NSaved=   2.
 NSaved= 2 IEnMin= 2 EnMin= -95.7822057575779     IErMin= 2 ErrMin= 1.29D-03
 ErrMax= 1.29D-03  0.00D+00 EMaxC= 1.00D-01 BMatC= 7.79D-05 BMatP= 6.96D-04
 IDIUse=3 WtCom= 9.87D-01 WtEn= 1.29D-02
 Coeff-Com:  0.128D+00 0.872D+00
 Coeff-En:   0.000D+00 0.100D+01
 Coeff:      0.127D+00 0.873D+00
 Gap=     0.307 Goal=   None    Shift=    0.000
 RMSDP=1.10D-04 MaxDP=2.09D-03 DE=-6.61D-04 OVMax= 4.02D-03

 Cycle   3  Pass 1  IDiag  1:
 E= -95.7822348250525     Delta-E=       -0.000029067475 Rises=F Damp=F
 DIIS: error= 1.04D-03 at cycle   3 NSaved=   3.
 NSaved= 3 IEnMin= 3 EnMin= -95.7822348250525     IErMin= 3 ErrMin= 1.04D-03
 ErrMax= 1.04D-03  0.00D+00 EMaxC= 1.00D-01 BMatC= 5.20D-05 BMatP= 7.79D-05
 IDIUse=3 WtCom= 9.90D-01 WtEn= 1.04D-02
 Coeff-Com: -0.190D-01 0.451D+00 0.568D+00
 Coeff-En:   0.000D+00 0.382D+00 0.618D+00
 Coeff:     -0.188D-01 0.450D+00 0.569D+00
 Gap=     0.305 Goal=   None    Shift=    0.000
 RMSDP=4.64D-05 MaxDP=9.57D-04 DE=-2.91D-05 OVMax= 1.94D-03

 Cycle   4  Pass 1  IDiag  1:
 E= -95.7822844877020     Delta-E=       -0.000049662650 Rises=F Damp=F
 DIIS: error= 6.12D-05 at cycle   4 NSaved=   4.
 NSaved= 4 IEnMin= 4 EnMin= -95.7822844877020     IErMin= 4 ErrMin= 6.12D-05
 ErrMax= 6.12D-05  0.00D+00 EMaxC= 1.00D-01 BMatC= 2.16D-07 BMatP= 5.20D-05
 IDIUse=1 WtCom= 1.00D+00 WtEn= 0.00D+00
 Coeff-Com: -0.654D-02 0.814D-01 0.122D+00 0.803D+00
 Coeff:     -0.654D-02 0.814D-01 0.122D+00 0.803D+00
 Gap=     0.306 Goal=   None    Shift=    0.000
 RMSDP=6.61D-06 MaxDP=1.34D-04 DE=-4.97D-05 OVMax= 2.61D-04

 Cycle   5  Pass 1  IDiag  1:
 E= -95.7822846594007     Delta-E=       -0.000000171699 Rises=F Damp=F
 DIIS: error= 3.21D-05 at cycle   5 NSaved=   5.
 NSaved= 5 IEnMin= 5 EnMin= -95.7822846594007     IErMin= 5 ErrMin= 3.21D-05
 ErrMax= 3.21D-05  0.00D+00 EMaxC= 1.00D-01 BMatC= 6.87D-08 BMatP= 2.16D-07
 IDIUse=1 WtCom= 1.00D+00 WtEn= 0.00D+00
 Coeff-Com: -0.196D-02 0.105D-01 0.221D-01 0.380D+00 0.589D+00
 Coeff:     -0.196D-02 0.105D-01 0.221D-01 0.380D+00 0.589D+00
 Gap=     0.305 Goal=   None    Shift=    0.000
 RMSDP=1.96D-06 MaxDP=3.76D-05 DE=-1.72D-07 OVMax= 8.66D-05

 Cycle   6  Pass 1  IDiag  1:
 E= -95.7822847116123     Delta-E=       -0.000000052212 Rises=F Damp=F
 DIIS: error= 9.49D-06 at cycle   6 NSaved=   6.
 NSaved= 6 IEnMin= 6 EnMin= -95.7822847116123     IErMin= 6 ErrMin= 9.49D-06
 ErrMax= 9.49D-06  0.00D+00 EMaxC= 1.00D-01 BMatC= 5.83D-09 BMatP= 6.87D-08
 IDIUse=1 WtCom= 1.00D+00 WtEn= 0.00D+00
 Coeff-Com:  0.115D-03-0.101D-01-0.111D-01 0.516D-01 0.254D+00 0.716D+00
 Coeff:      0.115D-03-0.101D-01-0.111D-01 0.516D-01 0.254D+00 0.716D+00
 Gap=     0.305 Goal=   None    Shift=    0.000
 RMSDP=6.76D-07 MaxDP=1.45D-05 DE=-5.22D-08 OVMax= 2.72D-05

 Cycle   7  Pass 1  IDiag  1:
 E= -95.7822847165249     Delta-E=       -0.000000004913 Rises=F Damp=F
 DIIS: error= 5.19D-07 at cycle   7 NSaved=   7.
 NSaved= 7 IEnMin= 7 EnMin= -95.7822847165249     IErMin= 7 ErrMin= 5.19D-07
 ErrMax= 5.19D-07  0.00D+00 EMaxC= 1.00D-01 BMatC= 2.18D-11 BMatP= 5.83D-09
 IDIUse=1 WtCom= 1.00D+00 WtEn= 0.00D+00
 Coeff-Com:  0.599D-04-0.574D-03-0.465D-03-0.696D-02-0.106D-01 0.173D-01
 Coeff-Com:  0.100D+01
 Coeff:      0.599D-04-0.574D-03-0.465D-03-0.696D-02-0.106D-01 0.173D-01
 Coeff:      0.100D+01
 Gap=     0.305 Goal=   None    Shift=    0.000
 RMSDP=1.27D-07 MaxDP=1.77D-06 DE=-4.91D-09 OVMax= 5.36D-06

 Cycle   8  Pass 1  IDiag  1:
 E= -95.7822847165646     Delta-E=       -0.000000000040 Rises=F Damp=F
 DIIS: error= 7.47D-08 at cycle   8 NSaved=   8.
 NSaved= 8 IEnMin= 8 EnMin= -95.7822847165646     IErMin= 8 ErrMin= 7.47D-08
 ErrMax= 7.47D-08  0.00D+00 EMaxC= 1.00D-01 BMatC= 4.96D-13 BMatP= 2.18D-11
 IDIUse=1 WtCom= 1.00D+00 WtEn= 0.00D+00
 Coeff-Com:  0.727D-05 0.480D-04 0.533D-04-0.166D-02-0.448D-02-0.920D-02
 Coeff-Com:  0.128D+00 0.888D+00
 Coeff:      0.727D-05 0.480D-04 0.533D-04-0.166D-02-0.448D-02-0.920D-02
 Coeff:      0.128D+00 0.888D+00
 Gap=     0.305 Goal=   None    Shift=    0.000
 RMSDP=1.28D-08 MaxDP=1.89D-07 DE=-3.97D-11 OVMax= 5.45D-07

 Cycle   9  Pass 1  IDiag  1:
 E= -95.7822847165654     Delta-E=       -0.000000000001 Rises=F Damp=F
 DIIS: error= 1.93D-08 at cycle   9 NSaved=   9.
 NSaved= 9 IEnMin= 9 EnMin= -95.7822847165654     IErMin= 9 ErrMin= 1.93D-08
 ErrMax= 1.93D-08  0.00D+00 EMaxC= 1.00D-01 BMatC= 1.64D-14 BMatP= 4.96D-13
 IDIUse=1 WtCom= 1.00D+00 WtEn= 0.00D+00
 Coeff-Com: -0.185D-05 0.355D-04 0.309D-04 0.564D-04-0.163D-03-0.204D-02
 Coeff-Com: -0.214D-01 0.130D+00 0.893D+00
 Coeff:     -0.185D-05 0.355D-04 0.309D-04 0.564D-04-0.163D-03-0.204D-02
 Coeff:     -0.214D-01 0.130D+00 0.893D+00
 Gap=     0.305 Goal=   None    Shift=    0.000
 RMSDP=2.93D-09 MaxDP=3.99D-08 DE=-8.53D-13 OVMax= 1.40D-07

 Error on total polarization charges =  0.00833
 SCF Done:  E(RPBE1PBE) =  -95.7822847166     A.U. after    9 cycles
            NFock=  9  Conv=0.29D-08     -V/T= 2.0052
 KE= 9.528838035355D+01 PE=-3.068724267349D+02 EE= 7.381352164402D+01
 Leave Link  502 at Tue Jul  2 17:46:15 2024, MaxMem=  8053063680 cpu:              14.2 elap:               0.9
 (Enter /share/apps/g16.b01_avx2/g16/l701.exe)
 ... and contract with generalized density number  0.
 Compute integral first derivatives.
 R6Disp: Adding Grimme-D3 dispersion energy 1st derivatives to the gradient.
   2 Symmetry operations used in ECPInt.
 ECPInt:  NShTT=     903 NPrTT=    2544 LenC2=     903 LenP2D=    2345.
 LDataN:  DoStor=T MaxTD1= 7 Len=  274
 D1PCM: PCM CHGder 1st derivatives, ID1Alg=3 FixD1E=F DoIter=F DoCFld=F I1PDM=0.
 GePol: Maximum number of non-zero 1st derivatives   =     259
 Leave Link  701 at Tue Jul  2 17:46:15 2024, MaxMem=  8053063680 cpu:               3.3 elap:               0.2
 (Enter /share/apps/g16.b01_avx2/g16/l702.exe)
 L702 exits ... SP integral derivatives will be done elsewhere.
 Leave Link  702 at Tue Jul  2 17:46:15 2024, MaxMem=  8053063680 cpu:               0.2 elap:               0.0
 (Enter /share/apps/g16.b01_avx2/g16/l703.exe)
 Integral derivatives from FoFJK, PRISM(SPDF).
 Compute integral first derivatives, UseDBF=F ICtDFT=           0.
 Calling FoFJK, ICntrl=      2127 FMM=F ISym2X=1 I1Cent= 0 IOpClX= 0 NMat=1 NMatS=1 NMatT=0.
 FoFJK:  IHMeth= 1 ICntrl=    2127 DoSepK=F KAlg= 0 I1Cent=           0 FoldK=F
 IRaf=         0 NMat=       1 IRICut=       1 DoRegI=T DoRafI=F ISym2E= 1 IDoP0=0 IntGTp=1.
 FoFCou: FMM=F IPFlag=           0 FMFlag=      100000 FMFlg1=         800
         NFxFlg=           0 DoJE=F BraDBF=F KetDBF=F FulRan=T
         wScrn=  0.000000 ICntrl=      2127 IOpCl=  0 I1Cent=           0 NGrid=           0
         NMat0=    1 NMatS0=      1 NMatT0=    0 NMatD0=    1 NMtDS0=    0 NMtDT0=    0
 Petite list used in FoFCou.
 Leave Link  703 at Tue Jul  2 17:46:16 2024, MaxMem=  8053063680 cpu:               4.0 elap:               0.3
 (Enter /share/apps/g16.b01_avx2/g16/l716.exe)
 Dipole        = 6.42820471D-01 1.79834685D-01-1.37009183D-15
 ***** Axes restored to original set *****
 -------------------------------------------------------------------
 Center     Atomic                   Forces (Hartrees/Bohr)
 Number     Number              X              Y              Z
 -------------------------------------------------------------------
      1        1           0.001378351   -0.000531501   -0.001578065
      2        7          -0.005007643    0.006167357    0.002338209
      3        1           0.000709837   -0.000997091   -0.001781734
      4        6           0.004633401   -0.007261679    0.001391819
      5        1          -0.001296988    0.000696697    0.000094413
      6        1          -0.000304501    0.001387919    0.000396783
      7        1          -0.000112459    0.000538298   -0.000861426
 -------------------------------------------------------------------
 Cartesian Forces:  Max     0.007261679 RMS     0.002755602
 Leave Link  716 at Tue Jul  2 17:46:16 2024, MaxMem=  8053063680 cpu:               0.2 elap:               0.0
 (Enter /share/apps/g16.b01_avx2/g16/l103.exe)

 GradGradGradGradGradGradGradGradGradGradGradGradGradGradGradGradGradGrad
 Berny optimization.
 Using GEDIIS/GDIIS optimizer.
 FormGI is forming the generalized inverse of G from B-inverse, IUseBI=4.
 Internal  Forces:  Max     0.005563761 RMS     0.001499962
 Search for a local minimum.
 Step number   2 out of a maximum of   31
 All quantities printed in internal units (Hartrees-Bohrs-Radians)
 RMS Force = .15000D-02 SwitMx=.10000D-02 MixMth= 1
 Mixed Optimization -- RFO/linear search
 Update second derivatives using D2CorX and points    1    2
 DE= -2.36D-03 DEPred=-2.28D-03 R= 1.03D+00
 TightC=F SS=  1.41D+00  RLast= 1.54D-01 DXNew= 5.0454D-01 4.6290D-01
 Trust test= 1.03D+00 RLast= 1.54D-01 DXMaxT set to 4.63D-01
 ITU=  1  0
 Use linear search instead of GDIIS.
     Eigenvalues ---    0.00766   0.04191   0.06898   0.07758   0.15235
     Eigenvalues ---    0.16000   0.16000   0.16000   0.16822   0.32677
     Eigenvalues ---    0.37224   0.37230   0.39917   0.46947   0.47688
 RFO step:  Lambda=-1.92300338D-04 EMin= 7.65814532D-03
 Quartic linear search produced a step of  0.08682.
 Iteration  1 RMS(Cart)=  0.00676415 RMS(Int)=  0.00007286
 Iteration  2 RMS(Cart)=  0.00005380 RMS(Int)=  0.00004144
 Iteration  3 RMS(Cart)=  0.00000000 RMS(Int)=  0.00004144
 ITry= 1 IFail=0 DXMaxC= 1.17D-02 DCOld= 1.00D+10 DXMaxT= 4.63D-01 DXLimC= 3.00D+00 Rises=F
 ClnCor:  largest displacement from symmetrization is 5.47D-13 for atom     6.
 Variable       Old X    -DE/DX   Delta X   Delta X   Delta X     New X
                                 (Linear)    (Quad)   (Total)
    R1        1.91005   0.00159   0.00176   0.00272   0.00449   1.91454
    R2        1.91005   0.00159   0.00176   0.00272   0.00449   1.91454
    R3        2.77601  -0.00556  -0.00016  -0.01682  -0.01699   2.75902
    R4        2.06036   0.00112   0.00333   0.00157   0.00490   2.06527
    R5        2.06036   0.00112   0.00333   0.00157   0.00490   2.06527
    R6        2.07122   0.00100   0.00427   0.00074   0.00502   2.07624
    A1        1.86738  -0.00118  -0.00375  -0.01660  -0.02043   1.84696
    A2        1.91485   0.00037   0.00037  -0.00274  -0.00241   1.91244
    A3        1.91485   0.00037   0.00037  -0.00274  -0.00241   1.91244
    A4        1.90044   0.00118  -0.00088   0.00860   0.00765   1.90809
    A5        1.90044   0.00118  -0.00088   0.00860   0.00765   1.90809
    A6        2.00005  -0.00023   0.00776  -0.00576   0.00194   2.00198
    A7        1.88085  -0.00092  -0.00259  -0.00391  -0.00656   1.87429
    A8        1.88934  -0.00064  -0.00185  -0.00384  -0.00575   1.88359
    A9        1.88934  -0.00064  -0.00185  -0.00384  -0.00575   1.88359
    D1       -3.14144  -0.00061   0.00001  -0.01417  -0.01414   3.12761
    D2       -1.09503  -0.00039  -0.00415  -0.00920  -0.01332  -1.10835
    D3        1.02336  -0.00050  -0.00207  -0.01168  -0.01373   1.00963
    D4        1.09503   0.00039   0.00415   0.00920   0.01332   1.10835
    D5        3.14144   0.00061  -0.00001   0.01417   0.01414  -3.12761
    D6       -1.02336   0.00050   0.00207   0.01168   0.01373  -1.00963
         Item               Value     Threshold  Converged?
 Maximum Force            0.005564     0.000450     NO 
 RMS     Force            0.001500     0.000300     NO 
 Maximum Displacement     0.011745     0.001800     NO 
 RMS     Displacement     0.006777     0.001200     NO 
 Predicted change in Energy=-1.080485D-04
 Lowest energy point so far.  Saving SCF results.
 GradGradGradGradGradGradGradGradGradGradGradGradGradGradGradGradGradGrad

 Leave Link  103 at Tue Jul  2 17:46:16 2024, MaxMem=  8053063680 cpu:               0.1 elap:               0.0
 (Enter /share/apps/g16.b01_avx2/g16/l202.exe)
                          Input orientation:                          
 ---------------------------------------------------------------------
 Center     Atomic      Atomic             Coordinates (Angstroms)
 Number     Number       Type             X           Y           Z
 ---------------------------------------------------------------------
      1          1           0       -3.457354   -0.625770   -4.353900
      2          7           0       -4.421556   -0.808928   -4.102511
      3          1           0       -4.744124   -1.521948   -4.745926
      4          6           0       -5.212690    0.405106   -4.281027
      5          1           0       -6.254407    0.199244   -4.022454
      6          1           0       -4.852116    1.175876   -3.595234
      7          1           0       -5.192550    0.820961   -5.297784
 ---------------------------------------------------------------------
                    Distance matrix (angstroms):
                    1          2          3          4          5
     1  H    0.000000
     2  N    1.013129   0.000000
     3  H    1.616353   1.013129   0.000000
     4  C    2.036963   1.460013   2.036963   0.000000
     5  H    2.934963   2.093361   2.401430   1.092892   0.000000
     6  H    2.401430   2.093361   2.934963   1.092892   1.761462
     7  H    2.448440   2.163250   2.448440   1.098698   1.772156
                    6          7
     6  H    0.000000
     7  H    1.772156   0.000000
 Stoichiometry    CH5N
 Framework group  CS[SG(CHN),X(H4)]
 Deg. of freedom     9
 Full point group                 CS      NOp   2
 RotChk:  IX=0 Diff= 4.26D-03
 Largest Abelian subgroup         CS      NOp   2
 Largest concise Abelian subgroup CS      NOp   2
                         Standard orientation:                         
 ---------------------------------------------------------------------
 Center     Atomic      Atomic             Coordinates (Angstroms)
 Number     Number       Type             X           Y           Z
 ---------------------------------------------------------------------
      1          1           0        0.455725   -1.097422    0.808176
      2          7           0       -0.052277   -0.757989   -0.000000
      3          1           0        0.455725   -1.097422   -0.808176
      4          6           0       -0.052277    0.702024    0.000000
      5          1           0       -0.588854    1.063702   -0.880731
      6          1           0       -0.588854    1.063702    0.880731
      7          1           0        0.945858    1.161223    0.000000
 ---------------------------------------------------------------------
 Rotational constants (GHZ):         103.3153561          22.9050095          22.0376017
 Leave Link  202 at Tue Jul  2 17:46:16 2024, MaxMem=  8053063680 cpu:               0.0 elap:               0.0
 (Enter /share/apps/g16.b01_avx2/g16/l301.exe)
 Standard basis: def2TZVP (5D, 7F)
 Ernie: Thresh=  0.10000D-02 Tol=  0.10000D-05 Strict=F.
 There are    67 symmetry adapted cartesian basis functions of A'  symmetry.
 There are    35 symmetry adapted cartesian basis functions of A"  symmetry.
 There are    59 symmetry adapted basis functions of A'  symmetry.
 There are    33 symmetry adapted basis functions of A"  symmetry.
    92 basis functions,   142 primitive gaussians,   102 cartesian basis functions
     9 alpha electrons        9 beta electrons
       nuclear repulsion energy        42.0629088584 Hartrees.
 IExCor= 1009 DFT=T Ex+Corr=PBE1PBE ExCW=0 ScaHFX=  0.250000
 ScaDFX=  0.750000  0.750000  1.000000  1.000000 ScalE2=  1.000000  1.000000
 IRadAn=  99590 IRanWt=     -1 IRanGd=            0 ICorTp=0 IEmpDi=131
 NAtoms=    7 NActive=    7 NUniq=    5 SFac= 1.96D+00 NAtFMM=   60 NAOKFM=F Big=F
 Integral buffers will be    131072 words long.
 Raffenetti 2 integral format.
 Two-electron integral symmetry is turned on.
 R6Disp:  Grimme-D3 Dispersion energy=       -0.0007202281 Hartrees.
 Nuclear repulsion after empirical dispersion term =       42.0621886304 Hartrees.
 ------------------------------------------------------------------------------
 Polarizable Continuum Model (PCM)
 =================================
 Model                : PCM.
 Atomic radii         : UFF (Universal Force Field).
 Polarization charges : Total charges.
 Charge compensation  : None.
 Solution method      : On-the-fly selection.
 Cavity type          : Scaled VdW (van der Waals Surface) (Alpha=1.100).
 Cavity algorithm     : GePol (No added spheres)
                        Default sphere list used, NSphG=    7.
                        Lebedev-Laikov grids with approx.  5.0 points / Ang**2.
                        Smoothing algorithm: York/Karplus (Gamma=1.0000).
                        Polarization charges: spherical gaussians, with
                                              point-specific exponents (IZeta= 3).
                        Self-potential: point-specific (ISelfS= 7).
                        Self-field    : sphere-specific E.n sum rule (ISelfD= 2).
 1st derivatives      : Analytical E(r).r(x)/FMM algorithm (CHGder, D1EAlg=3).
                        Cavity 1st derivative terms included.
 Solvent              : Water, Eps=  78.355300 Eps(inf)=   1.777849
 ------------------------------------------------------------------------------
 Spheres list:
 ISph  on   Nord     Re0    Alpha      Xe            Ye            Ze
    1   H      1    1.4430  1.100      0.455725     -1.097422      0.808176
    2   N      2    1.8300  1.100     -0.052277     -0.757989      0.000000
    3   H      3    1.4430  1.100      0.455725     -1.097422     -0.808176
    4   C      4    1.9255  1.100     -0.052277      0.702024      0.000000
    5   H      5    1.4430  1.100     -0.588854      1.063702     -0.880731
    6   H      6    1.4430  1.100     -0.588854      1.063702      0.880731
    7   H      7    1.4430  1.100      0.945858      1.161223      0.000000
 ------------------------------------------------------------------------------
 GePol: Number of generator spheres                  =       7
 GePol: Total number of spheres                      =       7
 GePol: Number of exposed spheres                    =       7 (100.00%)
 GePol: Number of points                             =     662
 GePol: Average weight of points                     =       0.14
 GePol: Minimum weight of points                     =   0.20D-05
 GePol: Maximum weight of points                     =    0.20571
 GePol: Number of points with low weight             =      35
 GePol: Fraction of low-weight points (<1% of avg)   =       5.29%
 GePol: Cavity surface area                          =     89.836 Ang**2
 GePol: Cavity volume                                =     71.011 Ang**3
 Leave Link  301 at Tue Jul  2 17:46:16 2024, MaxMem=  8053063680 cpu:               0.3 elap:               0.0
 (Enter /share/apps/g16.b01_avx2/g16/l302.exe)
 NPDir=0 NMtPBC=     1 NCelOv=     1 NCel=       1 NClECP=     1 NCelD=      1
         NCelK=      1 NCelE2=     1 NClLst=     1 CellRange=     0.0.
 One-electron integrals computed using PRISM.
 One-electron integral symmetry used in STVInt
   2 Symmetry operations used in ECPInt.
 ECPInt:  NShTT=     903 NPrTT=    2544 LenC2=     903 LenP2D=    2345.
 LDataN:  DoStor=T MaxTD1= 6 Len=  172
 NBasis=    92 RedAO= T EigKep=  1.19D-03  NBF=    59    33
 NBsUse=    92 1.00D-06 EigRej= -1.00D+00 NBFU=    59    33
 Precomputing XC quadrature grid using
 IXCGrd= 4 IRadAn=       99590 IRanWt=          -1 IRanGd=           0 AccXCQ= 0.00D+00.
 Generated NRdTot=       0 NPtTot=           0 NUsed=           0 NTot=          32
 NSgBfM=   102   102   102   102   102 MxSgAt=     7 MxSgA2=     7.
 Leave Link  302 at Tue Jul  2 17:46:16 2024, MaxMem=  8053063680 cpu:               1.0 elap:               0.1
 (Enter /share/apps/g16.b01_avx2/g16/l303.exe)
 DipDrv:  MaxL=1.
 Leave Link  303 at Tue Jul  2 17:46:16 2024, MaxMem=  8053063680 cpu:               0.3 elap:               0.0
 (Enter /share/apps/g16.b01_avx2/g16/l401.exe)
 Initial guess from the checkpoint file:  "/scratch/Gau-315969.chk"
 B after Tr=    -0.000000   -0.000000    0.000000
         Rot=    1.000000   -0.000000    0.000000   -0.000795 Ang=  -0.09 deg.
 Guess basis will be translated and rotated to current coordinates.
 JPrj=2 DoOrth=T DoCkMO=T.
 Initial guess orbital symmetries:
       Occupied  (A') (A') (A') (A') (A") (A') (A') (A") (A')
       Virtual   (A') (A') (A") (A') (A") (A') (A') (A") (A') (A")
                 (A') (A') (A') (A") (A') (A') (A') (A") (A') (A")
                 (A') (A') (A") (A') (A') (A") (A") (A') (A') (A')
                 (A") (A') (A") (A') (A") (A') (A") (A') (A") (A')
                 (A') (A") (A') (A') (A') (A") (A') (A") (A') (A")
                 (A') (A') (A') (A") (A") (A') (A') (A") (A') (A')
                 (A") (A') (A") (A') (A') (A") (A') (A") (A') (A")
                 (A') (A') (A') (A") (A") (A') (A") (A') (A') (A")
                 (A') (A') (A')
 The electronic state of the initial guess is 1-A'.
 Leave Link  401 at Tue Jul  2 17:46:16 2024, MaxMem=  8053063680 cpu:               0.6 elap:               0.0
 (Enter /share/apps/g16.b01_avx2/g16/l502.exe)
 Keep R1 ints in memory in symmetry-blocked form, NReq=23990582.
 FoFCou: FMM=F IPFlag=           0 FMFlag=           0 FMFlg1=           0
         NFxFlg=           0 DoJE=F BraDBF=F KetDBF=F FulRan=T
         wScrn=  0.000000 ICntrl=       600 IOpCl=  0 I1Cent=           0 NGrid=           0
         NMat0=    1 NMatS0=   4278 NMatT0=    0 NMatD0=    1 NMtDS0=    0 NMtDT0=    0
 Petite list used in FoFCou.
 Closed shell SCF:
 Using DIIS extrapolation, IDIIS=  1040.
 NGot=  8053063680 LenX=  8048415939 LenY=  8048405094
 Requested convergence on RMS density matrix=1.00D-08 within 128 cycles.
 Requested convergence on MAX density matrix=1.00D-06.
 Requested convergence on             energy=1.00D-06.
 No special actions if energy rises.

 Cycle   1  Pass 1  IDiag  1:
 Inv3:  Mode=1 IEnd=     1314732.
 Iteration    1 A*A^-1 deviation from unit magnitude is 2.66D-15 for    377.
 Iteration    1 A*A^-1 deviation from orthogonality  is 2.40D-15 for    610      4.
 Iteration    1 A^-1*A deviation from unit magnitude is 2.66D-15 for    377.
 Iteration    1 A^-1*A deviation from orthogonality  is 1.20D-15 for    296    243.
 E= -95.7823413938892    
 DIIS: error= 9.27D-04 at cycle   1 NSaved=   1.
 NSaved= 1 IEnMin= 1 EnMin= -95.7823413938892     IErMin= 1 ErrMin= 9.27D-04
 ErrMax= 9.27D-04  0.00D+00 EMaxC= 1.00D-01 BMatC= 5.98D-05 BMatP= 5.98D-05
 IDIUse=3 WtCom= 9.91D-01 WtEn= 9.27D-03
 Coeff-Com:  0.100D+01
 Coeff-En:   0.100D+01
 Coeff:      0.100D+01
 Gap=     0.306 Goal=   None    Shift=    0.000
 RMSDP=9.15D-05 MaxDP=1.21D-03              OVMax= 3.05D-03

 Cycle   2  Pass 1  IDiag  1:
 E= -95.7824040914155     Delta-E=       -0.000062697526 Rises=F Damp=F
 DIIS: error= 1.32D-04 at cycle   2 NSaved=   2.
 NSaved= 2 IEnMin= 2 EnMin= -95.7824040914155     IErMin= 2 ErrMin= 1.32D-04
 ErrMax= 1.32D-04  0.00D+00 EMaxC= 1.00D-01 BMatC= 1.15D-06 BMatP= 5.98D-05
 IDIUse=3 WtCom= 9.99D-01 WtEn= 1.32D-03
 Coeff-Com: -0.939D-02 0.101D+01
 Coeff-En:   0.000D+00 0.100D+01
 Coeff:     -0.938D-02 0.101D+01
 Gap=     0.306 Goal=   None    Shift=    0.000
 RMSDP=1.42D-05 MaxDP=2.76D-04 DE=-6.27D-05 OVMax= 4.70D-04

 Cycle   3  Pass 1  IDiag  1:
 E= -95.7824047666419     Delta-E=       -0.000000675226 Rises=F Damp=F
 DIIS: error= 9.70D-05 at cycle   3 NSaved=   3.
 NSaved= 3 IEnMin= 3 EnMin= -95.7824047666419     IErMin= 3 ErrMin= 9.70D-05
 ErrMax= 9.70D-05  0.00D+00 EMaxC= 1.00D-01 BMatC= 6.20D-07 BMatP= 1.15D-06
 IDIUse=1 WtCom= 1.00D+00 WtEn= 0.00D+00
 Coeff-Com: -0.183D-01 0.423D+00 0.595D+00
 Coeff:     -0.183D-01 0.423D+00 0.595D+00
 Gap=     0.306 Goal=   None    Shift=    0.000
 RMSDP=5.37D-06 MaxDP=1.19D-04 DE=-6.75D-07 OVMax= 2.40D-04

 Cycle   4  Pass 1  IDiag  1:
 E= -95.7824052780925     Delta-E=       -0.000000511451 Rises=F Damp=F
 DIIS: error= 2.45D-05 at cycle   4 NSaved=   4.
 NSaved= 4 IEnMin= 4 EnMin= -95.7824052780925     IErMin= 4 ErrMin= 2.45D-05
 ErrMax= 2.45D-05  0.00D+00 EMaxC= 1.00D-01 BMatC= 5.32D-08 BMatP= 6.20D-07
 IDIUse=1 WtCom= 1.00D+00 WtEn= 0.00D+00
 Coeff-Com: -0.712D-02 0.912D-01 0.260D+00 0.656D+00
 Coeff:     -0.712D-02 0.912D-01 0.260D+00 0.656D+00
 Gap=     0.306 Goal=   None    Shift=    0.000
 RMSDP=1.43D-06 MaxDP=2.57D-05 DE=-5.11D-07 OVMax= 5.60D-05

 Cycle   5  Pass 1  IDiag  1:
 E= -95.7824053204347     Delta-E=       -0.000000042342 Rises=F Damp=F
 DIIS: error= 6.28D-06 at cycle   5 NSaved=   5.
 NSaved= 5 IEnMin= 5 EnMin= -95.7824053204347     IErMin= 5 ErrMin= 6.28D-06
 ErrMax= 6.28D-06  0.00D+00 EMaxC= 1.00D-01 BMatC= 1.79D-09 BMatP= 5.32D-08
 IDIUse=1 WtCom= 1.00D+00 WtEn= 0.00D+00
 Coeff-Com: -0.159D-02 0.848D-02 0.565D-01 0.209D+00 0.727D+00
 Coeff:     -0.159D-02 0.848D-02 0.565D-01 0.209D+00 0.727D+00
 Gap=     0.306 Goal=   None    Shift=    0.000
 RMSDP=4.27D-07 MaxDP=1.49D-05 DE=-4.23D-08 OVMax= 1.89D-05

 Cycle   6  Pass 1  IDiag  1:
 E= -95.7824053216061     Delta-E=       -0.000000001171 Rises=F Damp=F
 DIIS: error= 2.40D-06 at cycle   6 NSaved=   6.
 NSaved= 6 IEnMin= 6 EnMin= -95.7824053216061     IErMin= 6 ErrMin= 2.40D-06
 ErrMax= 2.40D-06  0.00D+00 EMaxC= 1.00D-01 BMatC= 4.72D-10 BMatP= 1.79D-09
 IDIUse=1 WtCom= 1.00D+00 WtEn= 0.00D+00
 Coeff-Com:  0.867D-04-0.619D-02 0.475D-03 0.330D-01 0.371D+00 0.602D+00
 Coeff:      0.867D-04-0.619D-02 0.475D-03 0.330D-01 0.371D+00 0.602D+00
 Gap=     0.306 Goal=   None    Shift=    0.000
 RMSDP=1.75D-07 MaxDP=2.56D-06 DE=-1.17D-09 OVMax= 6.39D-06

 Cycle   7  Pass 1  IDiag  1:
 E= -95.7824053220253     Delta-E=       -0.000000000419 Rises=F Damp=F
 DIIS: error= 2.25D-07 at cycle   7 NSaved=   7.
 NSaved= 7 IEnMin= 7 EnMin= -95.7824053220253     IErMin= 7 ErrMin= 2.25D-07
 ErrMax= 2.25D-07  0.00D+00 EMaxC= 1.00D-01 BMatC= 3.18D-12 BMatP= 4.72D-10
 IDIUse=1 WtCom= 1.00D+00 WtEn= 0.00D+00
 Coeff-Com:  0.513D-04-0.485D-03-0.247D-02-0.994D-02-0.146D-01 0.576D-01
 Coeff-Com:  0.970D+00
 Coeff:      0.513D-04-0.485D-03-0.247D-02-0.994D-02-0.146D-01 0.576D-01
 Coeff:      0.970D+00
 Gap=     0.306 Goal=   None    Shift=    0.000
 RMSDP=2.72D-08 MaxDP=8.28D-07 DE=-4.19D-10 OVMax= 1.03D-06

 Cycle   8  Pass 1  IDiag  1:
 E= -95.7824053220289     Delta-E=       -0.000000000004 Rises=F Damp=F
 DIIS: error= 9.61D-09 at cycle   8 NSaved=   8.
 NSaved= 8 IEnMin= 8 EnMin= -95.7824053220289     IErMin= 8 ErrMin= 9.61D-09
 ErrMax= 9.61D-09  0.00D+00 EMaxC= 1.00D-01 BMatC= 1.15D-14 BMatP= 3.18D-12
 IDIUse=1 WtCom= 1.00D+00 WtEn= 0.00D+00
 Coeff-Com:  0.225D-05 0.487D-04-0.151D-03-0.995D-03-0.415D-02-0.332D-02
 Coeff-Com:  0.475D-01 0.961D+00
 Coeff:      0.225D-05 0.487D-04-0.151D-03-0.995D-03-0.415D-02-0.332D-02
 Coeff:      0.475D-01 0.961D+00
 Gap=     0.306 Goal=   None    Shift=    0.000
 RMSDP=2.99D-09 MaxDP=4.41D-08 DE=-3.52D-12 OVMax= 1.22D-07

 Error on total polarization charges =  0.00836
 SCF Done:  E(RPBE1PBE) =  -95.7824053220     A.U. after    8 cycles
            NFock=  8  Conv=0.30D-08     -V/T= 2.0052
 KE= 9.528787501513D+01 PE=-3.070142205309D+02 EE= 7.388175156342D+01
 Leave Link  502 at Tue Jul  2 17:46:17 2024, MaxMem=  8053063680 cpu:              13.2 elap:               0.8
 (Enter /share/apps/g16.b01_avx2/g16/l701.exe)
 ... and contract with generalized density number  0.
 Compute integral first derivatives.
 R6Disp: Adding Grimme-D3 dispersion energy 1st derivatives to the gradient.
   2 Symmetry operations used in ECPInt.
 ECPInt:  NShTT=     903 NPrTT=    2544 LenC2=     903 LenP2D=    2345.
 LDataN:  DoStor=T MaxTD1= 7 Len=  274
 D1PCM: PCM CHGder 1st derivatives, ID1Alg=3 FixD1E=F DoIter=F DoCFld=F I1PDM=0.
 GePol: Maximum number of non-zero 1st derivatives   =     257
 Leave Link  701 at Tue Jul  2 17:46:17 2024, MaxMem=  8053063680 cpu:               3.3 elap:               0.2
 (Enter /share/apps/g16.b01_avx2/g16/l702.exe)
 L702 exits ... SP integral derivatives will be done elsewhere.
 Leave Link  702 at Tue Jul  2 17:46:17 2024, MaxMem=  8053063680 cpu:               0.2 elap:               0.0
 (Enter /share/apps/g16.b01_avx2/g16/l703.exe)
 Integral derivatives from FoFJK, PRISM(SPDF).
 Compute integral first derivatives, UseDBF=F ICtDFT=           0.
 Calling FoFJK, ICntrl=      2127 FMM=F ISym2X=1 I1Cent= 0 IOpClX= 0 NMat=1 NMatS=1 NMatT=0.
 FoFJK:  IHMeth= 1 ICntrl=    2127 DoSepK=F KAlg= 0 I1Cent=           0 FoldK=F
 IRaf=         0 NMat=       1 IRICut=       1 DoRegI=T DoRafI=F ISym2E= 1 IDoP0=0 IntGTp=1.
 FoFCou: FMM=F IPFlag=           0 FMFlag=      100000 FMFlg1=         800
         NFxFlg=           0 DoJE=F BraDBF=F KetDBF=F FulRan=T
         wScrn=  0.000000 ICntrl=      2127 IOpCl=  0 I1Cent=           0 NGrid=           0
         NMat0=    1 NMatS0=      1 NMatT0=    0 NMatD0=    1 NMtDS0=    0 NMtDT0=    0
 Petite list used in FoFCou.
 Leave Link  703 at Tue Jul  2 17:46:17 2024, MaxMem=  8053063680 cpu:               4.1 elap:               0.3
 (Enter /share/apps/g16.b01_avx2/g16/l716.exe)
 Dipole        = 6.54023864D-01 1.77417161D-01-1.95856097D-15
 ***** Axes restored to original set *****
 -------------------------------------------------------------------
 Center     Atomic                   Forces (Hartrees/Bohr)
 Number     Number              X              Y              Z
 -------------------------------------------------------------------
      1        1           0.000204729   -0.000198687   -0.000057619
      2        7          -0.000606033    0.000966414   -0.000220020
      3        1           0.000142876   -0.000241765   -0.000076463
      4        6           0.000486403   -0.000934263    0.000539190
      5        1           0.000232236    0.000400847   -0.000171586
      6        1          -0.000349731   -0.000004466   -0.000348887
      7        1          -0.000110480    0.000011920    0.000335384
 -------------------------------------------------------------------
 Cartesian Forces:  Max     0.000966414 RMS     0.000410120
 Leave Link  716 at Tue Jul  2 17:46:17 2024, MaxMem=  8053063680 cpu:               0.3 elap:               0.0
 (Enter /share/apps/g16.b01_avx2/g16/l103.exe)

 GradGradGradGradGradGradGradGradGradGradGradGradGradGradGradGradGradGrad
 Berny optimization.
 Using GEDIIS/GDIIS optimizer.
 FormGI is forming the generalized inverse of G from B-inverse, IUseBI=4.
 Internal  Forces:  Max     0.000621382 RMS     0.000281401
 Search for a local minimum.
 Step number   3 out of a maximum of   31
 All quantities printed in internal units (Hartrees-Bohrs-Radians)
 RMS Force = .28140D-03 SwitMx=.10000D-02 MixMth= 2
 Mixed Optimization -- En-DIIS/RFO-DIIS
 Update second derivatives using D2CorX and points    1    2    3
 DE= -1.21D-04 DEPred=-1.08D-04 R= 1.12D+00
 TightC=F SS=  1.41D+00  RLast= 4.68D-02 DXNew= 7.7850D-01 1.4049D-01
[...]
                6             7             8             9            10 
      6  0.291660D+00
      7 -0.747532D-01  0.104981D+00
      8 -0.162013D+00  0.865149D-01  0.251637D+00
      9 -0.187752D+00  0.869695D-01  0.188341D+00  0.183160D+00
     10 -0.312637D-02  0.769729D-02 -0.914303D-02 -0.246462D-03  0.562913D+00
     11 -0.969281D-02  0.184839D-01 -0.261765D-01  0.107678D-01  0.470595D-01
     12 -0.668754D-01  0.150597D-01 -0.220510D-01 -0.474025D-03 -0.321523D-02
     13  0.174280D-02  0.395355D-03  0.316204D-04  0.208799D-03 -0.283170D+00
     14 -0.493094D-02 -0.463393D-03  0.117801D-02 -0.546771D-03 -0.605203D-01
     15  0.213968D-02  0.421278D-03 -0.159943D-03 -0.900989D-04  0.620222D-01
     16  0.124395D-01 -0.171881D-02  0.432700D-02  0.535220D-03 -0.810164D-01
     17 -0.165803D-01  0.473314D-02 -0.350975D-02  0.292752D-03 -0.615506D-01
     18  0.542339D-02 -0.120899D-03  0.166646D-02  0.114726D-02 -0.596288D-01
     19 -0.195063D-01  0.655373D-04 -0.160670D-02  0.519830D-03 -0.511798D-01
     20  0.282740D-01 -0.572852D-04  0.135242D-02  0.500778D-03 -0.575722D-02
     21  0.272255D-02 -0.418191D-03  0.165997D-03  0.175158D-02  0.121830D-01
               11            12            13            14            15 
     11  0.517736D+00
     12  0.214946D-01  0.556125D+00
     13 -0.524957D-01  0.597233D-01  0.312303D+00
     14 -0.603812D-01  0.146210D-01  0.512992D-01  0.662881D-01
     15  0.146153D-01 -0.640172D-01 -0.652236D-01 -0.169358D-01  0.628232D-01
     16 -0.680106D-01 -0.609065D-01 -0.892746D-02 -0.200271D-01 -0.199549D-01
     17 -0.169959D+00 -0.112599D+00 -0.224878D-02 -0.402030D-02 -0.358145D-02
     18 -0.117729D+00 -0.156594D+00  0.267466D-02  0.676270D-02  0.540697D-02
     19 -0.580142D-02  0.122840D-01 -0.451163D-03 -0.947608D-02  0.286598D-01
     20 -0.764791D-01  0.760504D-01 -0.117770D-02 -0.185613D-02  0.739449D-02
     21  0.761955D-01 -0.265651D+00  0.550280D-03  0.141052D-02 -0.698044D-02
               16            17            18            19            20 
     16  0.825873D-01
     17  0.640042D-01  0.195409D+00
     18  0.648791D-01  0.126287D+00  0.163419D+00
     19  0.983522D-03  0.365388D-02 -0.114887D-01  0.505117D-01
     20  0.158098D-02  0.851369D-02 -0.200311D-01 -0.150364D-02  0.885415D-01
     21  0.238931D-02  0.638707D-02 -0.187850D-01 -0.950666D-02 -0.910161D-01
               21 
     21  0.285836D+00
 FormGI is forming the generalized inverse of G from B-inverse, IUseBI=4.
 Force constants in internal coordinates: 
                1             2             3             4             5 
      1  0.451480D+00
      2 -0.480219D-03  0.451480D+00
      3  0.214813D-02  0.214813D-02  0.340790D+00
      4 -0.154110D-02  0.338234D-03  0.950983D-02  0.338946D+00
      5  0.338234D-03 -0.154110D-02  0.950983D-02  0.233583D-02  0.338946D+00
      6  0.546761D-03  0.546761D-03  0.159555D-01  0.362432D-02  0.362432D-02
      7  0.703053D-02  0.703053D-02 -0.204933D-01 -0.130679D-02 -0.130679D-02
      8  0.899752D-02 -0.371214D-02  0.340018D-01  0.372465D-02 -0.611845D-03
      9 -0.371214D-02  0.899752D-02  0.340018D-01 -0.611845D-03  0.372465D-02
     10  0.538620D-02 -0.715165D-03  0.225128D-01  0.125419D-02 -0.457155D-02
     11 -0.715165D-03  0.538620D-02  0.225128D-01 -0.457155D-02  0.125419D-02
     12 -0.346042D-02 -0.346042D-02  0.211629D-01 -0.548567D-02 -0.548567D-02
     13 -0.138623D-02 -0.138623D-02 -0.230389D-01  0.535485D-02  0.535485D-02
     14 -0.643918D-03  0.830707D-03 -0.237089D-01  0.583009D-02 -0.154226D-02
     15  0.830707D-03 -0.643918D-03 -0.237089D-01 -0.154226D-02  0.583009D-02
     16  0.569124D-02  0.475720D-02  0.787162D-02 -0.185802D-03 -0.416396D-02
     17  0.673131D-02  0.579727D-02  0.618970D-02  0.436310D-02  0.384937D-03
     18  0.486730D-02  0.662122D-02  0.703066D-02 -0.491172D-02  0.511085D-02
     19 -0.579727D-02 -0.673131D-02 -0.618970D-02 -0.384937D-03 -0.436310D-02
     20 -0.475720D-02 -0.569124D-02 -0.787162D-02  0.416396D-02  0.185802D-03
     21 -0.662122D-02 -0.486730D-02 -0.703066D-02 -0.511085D-02  0.491172D-02
                6             7             8             9            10 
      6  0.321543D+00
      7 -0.252747D-03  0.544452D-01
      8 -0.994288D-03 -0.494834D-01  0.146540D+00
      9 -0.994288D-03 -0.494834D-01 -0.313401D-01  0.146540D+00
     10 -0.467265D-02 -0.393082D-02  0.176823D-01 -0.770786D-02  0.118066D+00
     11 -0.467265D-02 -0.393082D-02 -0.770786D-02  0.176823D-01 -0.212630D-01
     12 -0.365275D-02  0.335064D-02 -0.483186D-02 -0.483186D-02 -0.286825D-01
     13 -0.248798D-02  0.263685D-02 -0.338252D-02 -0.338252D-02 -0.385659D-01
     14  0.790309D-02  0.102214D-02 -0.533334D-02  0.339413D-02 -0.438241D-01
     15  0.790309D-02  0.102214D-02  0.339413D-02 -0.533334D-02  0.108913D-01
     16  0.350407D-02  0.530028D-02  0.387062D-02  0.437378D-03  0.769606D-03
     17 -0.494238D-02  0.391726D-02  0.558051D-02  0.214727D-02  0.104218D-01
     18 -0.719156D-03  0.460877D-02  0.819798D-03  0.519809D-02 -0.113944D-01
     19  0.494238D-02 -0.391726D-02 -0.214727D-02 -0.558051D-02 -0.177750D-03
     20 -0.350407D-02 -0.530028D-02 -0.437378D-03 -0.387062D-02  0.947447D-02
     21  0.719156D-03 -0.460877D-02 -0.519809D-02 -0.819798D-03 -0.123418D-01
               11            12            13            14            15 
     11  0.118066D+00
     12 -0.286825D-01  0.120544D+00
     13 -0.385659D-01  0.107165D-01  0.541758D-01
     14  0.108913D-01 -0.398810D-01  0.870801D-02  0.595770D-01
     15 -0.438241D-01 -0.398810D-01  0.870801D-02  0.872444D-02  0.595770D-01
     16 -0.947447D-02  0.946755D-02 -0.106772D-01  0.860176D-02  0.146998D-03
     17  0.177750D-03 -0.109372D-01  0.999950D-02 -0.202529D-04 -0.847502D-02
     18  0.123418D-01 -0.734834D-03 -0.338861D-03 -0.815759D-02  0.828433D-02
     19 -0.104218D-01  0.109372D-01 -0.999950D-02  0.847502D-02  0.202530D-04
     20 -0.769606D-03 -0.946755D-02  0.106772D-01 -0.146998D-03 -0.860176D-02
     21  0.113944D-01  0.734834D-03  0.338861D-03 -0.828433D-02  0.815759D-02
               16            17            18            19            20 
     16  0.168465D-01
     17 -0.113529D-02  0.171288D-01
     18 -0.151809D-02 -0.137697D-02  0.182220D-01
     19  0.800106D-02 -0.102630D-01 -0.105047D-01  0.171288D-01
     20 -0.998076D-02  0.800106D-02 -0.103636D-01 -0.113529D-02  0.168465D-01
     21 -0.103636D-01 -0.105047D-01  0.923544D-02 -0.137697D-02 -0.151809D-02
               21 
     21  0.182220D-01
 Leave Link  716 at Tue Jul  2 17:46:28 2024, MaxMem=  8053063680 cpu:               0.3 elap:               0.0
 (Enter /share/apps/g16.b01_avx2/g16/l103.exe)

 GradGradGradGradGradGradGradGradGradGradGradGradGradGradGradGradGradGrad
 Berny optimization.
 Red2BG is reusing G-inverse.
 Internal  Forces:  Max     0.000333055 RMS     0.000090449
 Search for a local minimum.
 Step number   1 out of a maximum of    2
 All quantities printed in internal units (Hartrees-Bohrs-Radians)
 Second derivative matrix not updated -- analytic derivatives used.
 ITU=  0
     Eigenvalues ---    0.00241   0.03281   0.06045   0.06185   0.12377
     Eigenvalues ---    0.14446   0.14498   0.17690   0.19960   0.31988
     Eigenvalues ---    0.33760   0.33853   0.37644   0.45266   0.45279
 Angle between quadratic step and forces=  56.45 degrees.
 Linear search not attempted -- first point.
 Iteration  1 RMS(Cart)=  0.00051323 RMS(Int)=  0.00000047
 Iteration  2 RMS(Cart)=  0.00000038 RMS(Int)=  0.00000029
 ITry= 1 IFail=0 DXMaxC= 1.08D-03 DCOld= 1.00D+10 DXMaxT= 3.00D-01 DXLimC= 3.00D+00 Rises=F
 ClnCor:  largest displacement from symmetrization is 4.03D-11 for atom     3.
 Variable       Old X    -DE/DX   Delta X   Delta X   Delta X     New X
                                 (Linear)    (Quad)   (Total)
    R1        1.91518  -0.00013   0.00000  -0.00039  -0.00039   1.91479
    R2        1.91518  -0.00013   0.00000  -0.00039  -0.00039   1.91479
    R3        2.75667  -0.00033   0.00000  -0.00121  -0.00121   2.75546
    R4        2.06465  -0.00008   0.00000  -0.00019  -0.00019   2.06446
    R5        2.06465  -0.00008   0.00000  -0.00019  -0.00019   2.06446
    R6        2.07578  -0.00004   0.00000  -0.00004  -0.00004   2.07575
    A1        1.84499   0.00006   0.00000   0.00124   0.00124   1.84623
    A2        1.91477  -0.00002   0.00000   0.00057   0.00057   1.91534
    A3        1.91477  -0.00002   0.00000   0.00057   0.00057   1.91534
    A4        1.91112  -0.00002   0.00000   0.00006   0.00006   1.91118
    A5        1.91112  -0.00002   0.00000   0.00006   0.00006   1.91118
    A6        2.00279   0.00004   0.00000   0.00043   0.00043   2.00322
    A7        1.87203   0.00002   0.00000  -0.00004  -0.00004   1.87198
    A8        1.88111  -0.00001   0.00000  -0.00027  -0.00027   1.88084
    A9        1.88111  -0.00001   0.00000  -0.00027  -0.00027   1.88084
    D1        3.12737   0.00003   0.00000   0.00106   0.00107   3.12843
    D2       -1.10783   0.00002   0.00000   0.00108   0.00108  -1.10675
    D3        1.00977   0.00002   0.00000   0.00107   0.00107   1.01084
    D4        1.10783  -0.00002   0.00000  -0.00108  -0.00108   1.10675
    D5       -3.12737  -0.00003   0.00000  -0.00106  -0.00107  -3.12843
    D6       -1.00977  -0.00002   0.00000  -0.00107  -0.00107  -1.01084
         Item               Value     Threshold  Converged?
 Maximum Force            0.000333     0.000450     YES
 RMS     Force            0.000090     0.000300     YES
 Maximum Displacement     0.001083     0.001800     YES
 RMS     Displacement     0.000513     0.001200     YES
 Predicted change in Energy=-3.846231D-07
 Optimization completed.
    -- Stationary point found.
                           ----------------------------
                           !   Optimized Parameters   !
                           ! (Angstroms and Degrees)  !
 --------------------------                            --------------------------
 ! Name  Definition              Value          Derivative Info.                !
 --------------------------------------------------------------------------------
 ! R1    R(1,2)                  1.0135         -DE/DX =   -0.0001              !
 ! R2    R(2,3)                  1.0135         -DE/DX =   -0.0001              !
 ! R3    R(2,4)                  1.4588         -DE/DX =   -0.0003              !
 ! R4    R(4,5)                  1.0926         -DE/DX =   -0.0001              !
 ! R5    R(4,6)                  1.0926         -DE/DX =   -0.0001              !
 ! R6    R(4,7)                  1.0985         -DE/DX =    0.0                 !
 ! A1    A(1,2,3)              105.7099         -DE/DX =    0.0001              !
 ! A2    A(1,2,4)              109.7085         -DE/DX =    0.0                 !
 ! A3    A(3,2,4)              109.7085         -DE/DX =    0.0                 !
 ! A4    A(2,4,5)              109.4991         -DE/DX =    0.0                 !
 ! A5    A(2,4,6)              109.4991         -DE/DX =    0.0                 !
 ! A6    A(2,4,7)              114.7517         -DE/DX =    0.0                 !
 ! A7    A(5,4,6)              107.2592         -DE/DX =    0.0                 !
 ! A8    A(5,4,7)              107.7795         -DE/DX =    0.0                 !
 ! A9    A(6,4,7)              107.7795         -DE/DX =    0.0                 !
 ! D1    D(1,2,4,5)            179.185          -DE/DX =    0.0                 !
 ! D2    D(1,2,4,6)            -63.474          -DE/DX =    0.0                 !
 ! D3    D(1,2,4,7)             57.8555         -DE/DX =    0.0                 !
 ! D4    D(3,2,4,5)             63.474          -DE/DX =    0.0                 !
 ! D5    D(3,2,4,6)           -179.185          -DE/DX =    0.0                 !
 ! D6    D(3,2,4,7)            -57.8555         -DE/DX =    0.0                 !
 --------------------------------------------------------------------------------
 GradGradGradGradGradGradGradGradGradGradGradGradGradGradGradGradGradGrad

 Leave Link  103 at Tue Jul  2 17:46:28 2024, MaxMem=  8053063680 cpu:               0.1 elap:               0.0
 (Enter /share/apps/g16.b01_avx2/g16/l9999.exe)

 ----------------------------------------------------------------------

 Electric dipole moment (input orientation):
 (Debye = 10**-18 statcoulomb cm , SI units = C m)
                  (au)            (Debye)         (10**-30 SI)
   Tot        0.676399D+00      0.171923D+01      0.573475D+01
   x          0.808669D-01      0.205543D+00      0.685618D+00
   y          0.168279D+00      0.427722D+00      0.142673D+01
   z         -0.650122D+00     -0.165244D+01     -0.551196D+01

 Dipole polarizability, Alpha (input orientation).
 (esu units = cm**3 , SI units = C**2 m**2 J**-1)
 Alpha(0;0):
               (au)            (10**-24 esu)      (10**-40 SI)
   iso        0.270952D+02      0.401509D+01      0.446739D+01
   aniso      0.316461D+01      0.468948D+00      0.521774D+00
   xx         0.273879D+02      0.405846D+01      0.451565D+01
   yx        -0.112971D+01     -0.167406D+00     -0.186264D+00
   yy         0.283215D+02      0.419682D+01      0.466959D+01
   zx         0.336781D+00      0.499059D-01      0.555277D-01
   zy         0.965077D-02      0.143010D-02      0.159120D-02
   zz         0.255762D+02      0.379000D+01      0.421694D+01

 ----------------------------------------------------------------------

 Dipole orientation:
     1         -7.45017718          3.09603675          6.83276218
     7         -9.19849272          3.28218355          6.07337641
     1         -9.92597372          4.88281757          6.83276218
     6        -10.75673053          1.12306043          6.78703186
     1        -12.64765937          1.34373775          5.98797906
     1         -9.95154661         -0.60204514          5.98797906
     1        -10.96240718          0.83807106          8.83284479

 Electric dipole moment (dipole orientation):
 (Debye = 10**-18 statcoulomb cm , SI units = C m)
                  (au)            (Debye)         (10**-30 SI)
   Tot        0.676399D+00      0.171923D+01      0.573475D+01
   x          0.000000D+00      0.000000D+00      0.000000D+00
   y          0.000000D+00      0.000000D+00      0.000000D+00
   z          0.676399D+00      0.171923D+01      0.573475D+01

 Dipole polarizability, Alpha (dipole orientation).
 (esu units = cm**3 , SI units = C**2 m**2 J**-1)
 Alpha(0;0):
               (au)            (10**-24 esu)      (10**-40 SI)
   iso        0.270952D+02      0.401509D+01      0.446739D+01
   aniso      0.316461D+01      0.468948D+00      0.521774D+00
   xx         0.274761D+02      0.407154D+01      0.453020D+01
   yx         0.107030D+01      0.158602D+00      0.176468D+00
   yy         0.281867D+02      0.417684D+01      0.464736D+01
   zx        -0.388398D+00     -0.575547D-01     -0.640382D-01
   zy        -0.538172D+00     -0.797489D-01     -0.887326D-01
   zz         0.256228D+02      0.379690D+01      0.422463D+01

 ----------------------------------------------------------------------
 1\1\GINC-CORNBREAD-16-02\Freq\RPBE1PBE\def2TZVP\C1H5N1\HILLEL\02-Jul-2
 024\0\\#P Geom=AllCheck Guess=TCheck SCRF=Check GenChk RPBE1PBE/def2TZ
 VP Freq\\Methyl_Amine\\0,1\H,-3.4566023031,-0.6273042107,-4.354216375\
 N,-4.421577331,-0.8086432629,-4.1030932151\H,-4.7428485769,-1.52311672
 42,-4.7460830733\C,-5.2123300535,0.4043161434,-4.2804021623\H,-6.25445
 51948,0.2012033476,-4.0226721401\H,-4.8537484192,1.1767324379,-3.59593
 40025\H,-5.1932335045,0.8213527488,-5.2964351052\\Version=ES64L-G16Rev
 B.01\State=1-A'\HF=-95.7824101\RMSD=8.826e-10\RMSF=1.025e-04\ZeroPoint
 =0.0641342\Thermal=0.0675473\Dipole=0.0808669,0.1682789,-0.6501216\Dip
 oleDeriv=0.0704887,-0.0037383,0.0688407,-0.0341503,0.1544878,-0.002466
 1,0.1570151,-0.0300069,0.2857752,-0.4583791,0.1789625,-0.0424484,0.177
 0043,-0.6771513,0.1744885,-0.037972,0.1680611,-0.6062243,0.1713691,0.0
 299262,-0.0593544,0.0224107,0.1683939,-0.0959212,-0.0608259,-0.192872,
 0.1709887,0.3204736,-0.2124353,0.0424433,-0.1835792,0.5037683,-0.12510
 13,-0.0235221,-0.0303854,0.332122,-0.1791137,0.0086289,0.0540859,-0.05
 41179,0.0319826,0.0234176,0.0636427,0.0328308,0.0657666,0.042506,-0.06
 31462,-0.0692557,-0.0067168,-0.0924893,-0.0950666,-0.064371,-0.1252155
 ,-0.0313812,0.0326552,0.0618022,0.0056887,0.0791491,-0.088992,0.120649
 1,-0.0339667,0.1775879,-0.2170469\Polar=27.3878632,-1.1297114,28.32154
 04,0.3367814,0.0096508,25.5761753\Quadrupole=1.0499812,0.008608,-1.058
 5892,0.2419908,-0.4879695,1.6317191\PG=CS [SG(C1H1N1),X(H4)]\NImag=0\\
 0.41817493,0.06936451,0.07583377,-0.09080419,-0.00714923,0.04576974,-0
 .38714670,-0.08115099,0.12597059,0.63477035,-0.06593877,-0.07055252,0.
 01050930,0.05957421,0.52220767,0.07739253,0.00427132,-0.04731830,0.005
 81105,0.16067154,0.29166024,-0.01298227,-0.02836973,-0.02715822,-0.098
 43793,-0.08084153,-0.07475318,0.10498083,-0.00204870,-0.00565413,-0.00
 594984,-0.07807504,-0.21882738,-0.16201280,0.08651486,0.25163728,0.006
 89319,0.00974649,0.00225716,-0.09488012,-0.20910214,-0.18775221,0.0869
 6954,0.18834112,0.18316032,-0.02002907,0.03696882,-0.00798830,-0.13521
 488,0.05294276,-0.00312637,0.00769729,-0.00914303,-0.00024646,0.562913
 26,-0.00419790,0.00359015,0.00434873,0.06496214,-0.18833050,-0.0096928
 1,0.01848394,-0.02617645,0.01076778,0.04705951,0.51773581,0.00765760,-
 0.00727477,-0.00251427,-0.03060284,0.02975908,-0.06687535,0.01505967,-
 0.02205098,-0.00047403,-0.00321523,0.02149459,0.55612513,0.00016337,0.
 00396821,0.00032376,-0.02031315,0.00062312,0.00174280,0.00039535,0.000
 03162,0.00020880,-0.28317042,-0.05249571,0.05972327,0.31230347,0.00431
 679,-0.00496255,-0.00038073,0.03487082,0.00375399,-0.00493094,-0.00046
 339,0.00117801,-0.00054677,-0.06052028,-0.06038115,0.01462102,0.051299
 23,0.06628814,-0.00074542,0.00072283,0.00071787,-0.00517936,-0.0020554
 6,0.00213968,0.00042128,-0.00015994,-0.00009010,0.06202217,0.01461533,
 -0.06401720,-0.06522358,-0.01693580,0.06282322,0.00065509,-0.00062831,
 0.00061835,0.00743671,0.01875375,0.01243947,-0.00171881,0.00432700,0.0
 0053522,-0.08101636,-0.06801056,-0.06090650,-0.00892746,-0.02002709,-0
 .01995491,0.08258732,-0.00009930,0.00084598,-0.00020573,-0.00849262,-0
 .02727958,-0.01658027,0.00473314,-0.00350975,0.00029275,-0.06155055,-0
 .16995880,-0.11259938,-0.00224878,-0.00402030,-0.00358145,0.06400424,0
 .19540876,0.00032815,-0.00048097,-0.00001781,0.00335653,0.00352506,0.0
 0542339,-0.00012090,0.00166646,0.00114726,-0.05962879,-0.11772914,-0.1
 5659362,0.00267466,0.00676270,0.00540697,0.06487907,0.12628701,0.16341
 875,0.00116465,-0.00015250,-0.00096199,-0.00109440,0.01488646,-0.01950
 630,0.00006554,-0.00160670,0.00051983,-0.05117981,-0.00580142,0.012284
 02,-0.00045116,-0.00947608,0.02865983,0.00098352,0.00365388,-0.0114887
 2,0.05051166,-0.00139663,0.00089929,-0.00117250,0.00831150,-0.02097168
 ,0.02827396,-0.00005729,0.00135242,0.00050078,-0.00575722,-0.07647905,
 0.07605045,-0.00117770,-0.00185613,0.00739449,0.00158098,0.00851369,-0
 .02003112,-0.00150364,0.08854147,-0.00072186,0.00016433,0.00110560,-0.
 00447587,0.00669261,0.00272255,-0.00041819,0.00016600,0.00175158,0.012
 18298,0.07619553,-0.26565067,0.00055028,0.00141052,-0.00698044,0.00238
 931,0.00638707,-0.01878495,-0.00950666,-0.09101606,0.28583632\\0.00011
 836,-0.00001880,-0.00009377,0.00004569,-0.00017042,0.00023962,0.000021
 15,-0.00008651,-0.00012339,-0.00013606,0.00021972,-0.00005569,-0.00007
 663,-0.00000247,0.00002710,0.00001221,0.00005941,0.00005417,0.00001529
 ,-0.00000094,-0.00004804\\\@


    WHAT WE HAVE LEARNED
 IS LIKE A HANDFUL OF EARTH;
  WHAT WE HAVE YET TO LEARN
   IS LIKE THE WHOLE WORLD.

         -- AVVAYIAR
 Job cpu time:       0 days  0 hours  2 minutes 28.7 seconds.
 Elapsed time:       0 days  0 hours  0 minutes  9.4 seconds.
 File lengths (MBytes):  RWF=     18 Int=      0 D2E=      0 Chk=      4 Scr=      1
 Normal termination of Gaussian 16 at Tue Jul  2 17:46:29 2024.
