 Entering Gaussian System, Link 0=g16
 Input=input.com
 Output=input.log
 Initial command:
 /share/apps/g16.b01_avx2/g16/l1.exe "/scratch/Gau-429849.inp" -scrdir="/scratch/"
 Entering Link 1 = /share/apps/g16.b01_avx2/g16/l1.exe PID=    429851.
  
 Copyright (c) 1988-2017, Gaussian, Inc.  All Rights Reserved.
  
 This is part of the Gaussian(R) 16 program.  It is based on
 the Gaussian(R) 09 system (copyright 2009, Gaussian, Inc.),
 the Gaussian(R) 03 system (copyright 2003, Gaussian, Inc.),
 the Gaussian(R) 98 system (copyright 1998, Gaussian, Inc.),
 the Gaussian(R) 94 system (copyright 1995, Gaussian, Inc.),
 the Gaussian 92(TM) system (copyright 1992, Gaussian, Inc.),
 the Gaussian 90(TM) system (copyright 1990, Gaussian, Inc.),
 the Gaussian 88(TM) system (copyright 1988, Gaussian, Inc.),
 the Gaussian 86(TM) system (copyright 1986, Carnegie Mellon
 University), and the Gaussian 82(TM) system (copyright 1983,
 Carnegie Mellon University). Gaussian is a federally registered
 trademark of Gaussian, Inc.
  
 This software contains proprietary and confidential information,
 including trade secrets, belonging to Gaussian, Inc.
  
 This software is provided under written license and may be
 used, copied, transmitted, or stored only in accord with that
 written license.
  
 The following legend is applicable only to US Government
 contracts under FAR:
  
                    RESTRICTED RIGHTS LEGEND
  
 Use, reproduction and disclosure by the US Government is
 subject to restrictions as set forth in subparagraphs (a)
 and (c) of the Commercial Computer Software - Restricted
 Rights clause in FAR 52.227-19.
  
 Gaussian, Inc.
 340 Quinnipiac St., Bldg. 40, Wallingford CT 06492
  
  
 ---------------------------------------------------------------
 Warning -- This program may not be used in any manner that
 competes with the business of Gaussian, Inc. or will provide
 assistance to any competitor of Gaussian, Inc.  The licensee
 of this program is prohibited from giving any competitor of
 Gaussian, Inc. access to this program.  By using this program,
 the user acknowledges that Gaussian, Inc. is engaged in the
 business of creating and licensing software in the field of
 computational chemistry and represents and warrants to the
 licensee that it is not a competitor of Gaussian, Inc. and that
 it will not use this program in any manner prohibited above.
 ---------------------------------------------------------------
  

 Cite this work as:
 Gaussian 16, Revision B.01,
 M. J. Frisch, G. W. Trucks, H. B. Schlegel, G. E. Scuseria, 
 M. A. Robb, J. R. Cheeseman, G. Scalmani, V. Barone, 
 G. A. Petersson, H. Nakatsuji, X. Li, M. Caricato, A. V. Marenich, 
 J. Bloino, B. G. Janesko, R. Gomperts, B. Mennucci, H. P. Hratchian, 
 J. V. Ortiz, A. F. Izmaylov, J. L. Sonnenberg, D. Williams-Young, 
 F. Ding, F. Lipparini, F. Egidi, J. Goings, B. Peng, A. Petrone, 
 T. Henderson, D. Ranasinghe, V. G. Zakrzewski, J. Gao, N. Rega, 
 G. Zheng, W. Liang, M. Hada, M. Ehara, K. Toyota, R. Fukuda, 
 J. Hasegawa, M. Ishida, T. Nakajima, Y. Honda, O. Kitao, H. Nakai, 
 T. Vreven, K. Throssell, J. A. Montgomery, Jr., J. E. Peralta, 
 F. Ogliaro, M. J. Bearpark, J. J. Heyd, E. N. Brothers, K. N. Kudin, 
 V. N. Staroverov, T. A. Keith, R. Kobayashi, J. Normand, 
 K. Raghavachari, A. P. Rendell, J. C. Burant, S. S. Iyengar, 
 J. Tomasi, M. Cossi, J. M. Millam, M. Klene, C. Adamo, R. Cammi, 
 J. W. Ochterski, R. L. Martin, K. Morokuma, O. Farkas, 
 J. B. Foresman, and D. J. Fox, Gaussian, Inc., Wallingford CT, 2016.
 
 ******************************************
 Gaussian 16:  ES64L-G16RevB.01 20-Dec-2017
                29-Aug-2024 
 ******************************************
 %nproc=24
 Will use up to   24 processors via shared memory.
 %mem=64GB
 ----------------------------------------------------------------------
 #P PBE1PBE/def2TZVP opt freq EmpiricalDispersion=GD3 Int=(grid=99590) 
 scrf=(iefpcm, solvent=water)
 ----------------------------------------------------------------------
 1/18=20,19=15,26=6,38=1/1,3;
 2/9=110,12=2,17=6,18=5,40=1/2;
 3/5=44,7=101,11=2,25=1,30=1,70=2201,71=1,72=1,74=-13,75=99590,124=31/1,2,3;
 4//1;
 5/5=2,38=5,53=1/2;
 6/7=2,8=2,9=2,10=2,28=1/1;
 7//1,2,3,16;
 1/18=20,19=15,26=6/3(2);
 2/9=110/2;
 99//99;
 2/9=110/2;
 3/5=44,7=101,11=2,25=1,30=1,70=2205,71=1,72=1,74=-13,75=99590,124=31/1,2,3;
 4/5=5,16=3,69=1/1;
 5/5=2,38=5,53=1/2;
 7//1,2,3,16;
 1/18=20,19=15,26=6/3(-5);
 2/9=110/2;
 6/7=2,8=2,9=2,10=2,19=2,28=1/1;
 99/9=1/99;
 Leave Link    1 at Thu Aug 29 08:24:12 2024, MaxMem=  8589934592 cpu:               0.6 elap:               0.0
 (Enter /share/apps/g16.b01_avx2/g16/l101.exe)
 ------------------------------------
 pfp-betaC_ester methyalacetamid_prod
 ------------------------------------
 Symbolic Z-matrix:
 Charge =  0 Multiplicity = 1
 C                     0.64172   0.80342   0.17601 
 O                     0.03378  -0.29782   0.14071 
 N                     2.07657   0.84102   0.49332 
 H                     2.49971   1.62069   0.03173 
 C                    -0.11747   2.11169  -0.11322 
 C                     2.71227  -0.40309   0.0362 
 H                     2.58335  -0.5018   -1.02141 
 H                     3.75669  -0.37571   0.26717 
 H                     2.25951  -1.23734   0.5301 
 H                    -1.13893   2.00517   0.18708 
 H                     0.33312   2.91379   0.43314 
 C                    -0.05504   2.41885  -1.62098 
 H                    -0.70681   3.23718  -1.84555 
 H                     0.94761   2.67692  -1.89118 
 H                    -0.36253   1.55587  -2.17381 
 
 ITRead=  0  0  0  0  0  0  0  0  0  0  0  0  0  0  0
 MicOpt= -1 -1 -1 -1 -1 -1 -1 -1 -1 -1 -1 -1 -1 -1 -1
 NAtoms=     15 NQM=       15 NQMF=       0 NMMI=      0 NMMIF=      0
                NMic=       0 NMicF=      0.
                    Isotopes and Nuclear Properties:
 (Nuclear quadrupole moments (NQMom) in fm**2, nuclear magnetic moments (NMagM)
  in nuclear magnetons)

  Atom         1           2           3           4           5           6           7           8           9          10
 IAtWgt=          12          16          14           1          12          12           1           1           1           1
 AtmWgt=  12.0000000  15.9949146  14.0030740   1.0078250  12.0000000  12.0000000   1.0078250   1.0078250   1.0078250   1.0078250
 NucSpn=           0           0           2           1           0           0           1           1           1           1
 AtZEff=  -0.0000000  -0.0000000  -0.0000000  -0.0000000  -0.0000000  -0.0000000  -0.0000000  -0.0000000  -0.0000000  -0.0000000
 NQMom=    0.0000000   0.0000000   2.0440000   0.0000000   0.0000000   0.0000000   0.0000000   0.0000000   0.0000000   0.0000000
 NMagM=    0.0000000   0.0000000   0.4037610   2.7928460   0.0000000   0.0000000   2.7928460   2.7928460   2.7928460   2.7928460
 AtZNuc=   6.0000000   8.0000000   7.0000000   1.0000000   6.0000000   6.0000000   1.0000000   1.0000000   1.0000000   1.0000000

  Atom        11          12          13          14          15
 IAtWgt=           1          12           1           1           1
 AtmWgt=   1.0078250  12.0000000   1.0078250   1.0078250   1.0078250
 NucSpn=           1           0           1           1           1
 AtZEff=  -0.0000000  -0.0000000  -0.0000000  -0.0000000  -0.0000000
 NQMom=    0.0000000   0.0000000   0.0000000   0.0000000   0.0000000
 NMagM=    2.7928460   0.0000000   2.7928460   2.7928460   2.7928460
 AtZNuc=   1.0000000   6.0000000   1.0000000   1.0000000   1.0000000
 Leave Link  101 at Thu Aug 29 08:24:12 2024, MaxMem=  8589934592 cpu:               7.0 elap:               0.3
 (Enter /share/apps/g16.b01_avx2/g16/l103.exe)

 GradGradGradGradGradGradGradGradGradGradGradGradGradGradGradGradGradGrad
 Berny optimization.
 Initialization pass.
                           ----------------------------
                           !    Initial Parameters    !
                           ! (Angstroms and Degrees)  !
 --------------------------                            --------------------------
 ! Name  Definition              Value          Derivative Info.                !
 --------------------------------------------------------------------------------
 ! R1    R(1,2)                  1.2584         estimate D2E/DX2                !
 ! R2    R(1,3)                  1.47           estimate D2E/DX2                !
 ! R3    R(1,5)                  1.54           estimate D2E/DX2                !
 ! R4    R(3,4)                  1.0            estimate D2E/DX2                !
 ! R5    R(3,6)                  1.47           estimate D2E/DX2                !
 ! R6    R(5,10)                 1.07           estimate D2E/DX2                !
 ! R7    R(5,11)                 1.07           estimate D2E/DX2                !
 ! R8    R(5,12)                 1.54           estimate D2E/DX2                !
 ! R9    R(6,7)                  1.07           estimate D2E/DX2                !
 ! R10   R(6,8)                  1.07           estimate D2E/DX2                !
 ! R11   R(6,9)                  1.07           estimate D2E/DX2                !
 ! R12   R(12,13)                1.07           estimate D2E/DX2                !
 ! R13   R(12,14)                1.07           estimate D2E/DX2                !
 ! R14   R(12,15)                1.07           estimate D2E/DX2                !
 ! A1    A(2,1,3)              120.0            estimate D2E/DX2                !
 ! A2    A(2,1,5)              120.0            estimate D2E/DX2                !
 ! A3    A(3,1,5)              120.0            estimate D2E/DX2                !
 ! A4    A(1,3,4)              109.4712         estimate D2E/DX2                !
 ! A5    A(1,3,6)              109.4712         estimate D2E/DX2                !
 ! A6    A(4,3,6)              109.4712         estimate D2E/DX2                !
 ! A7    A(1,5,10)             109.4712         estimate D2E/DX2                !
 ! A8    A(1,5,11)             109.4712         estimate D2E/DX2                !
 ! A9    A(1,5,12)             109.4712         estimate D2E/DX2                !
 ! A10   A(10,5,11)            109.4712         estimate D2E/DX2                !
 ! A11   A(10,5,12)            109.4712         estimate D2E/DX2                !
 ! A12   A(11,5,12)            109.4712         estimate D2E/DX2                !
 ! A13   A(3,6,7)              109.4712         estimate D2E/DX2                !
 ! A14   A(3,6,8)              109.4712         estimate D2E/DX2                !
 ! A15   A(3,6,9)              109.4712         estimate D2E/DX2                !
 ! A16   A(7,6,8)              109.4712         estimate D2E/DX2                !
 ! A17   A(7,6,9)              109.4712         estimate D2E/DX2                !
 ! A18   A(8,6,9)              109.4712         estimate D2E/DX2                !
 ! A19   A(5,12,13)            109.4712         estimate D2E/DX2                !
 ! A20   A(5,12,14)            109.4712         estimate D2E/DX2                !
 ! A21   A(5,12,15)            109.4712         estimate D2E/DX2                !
 ! A22   A(13,12,14)           109.4713         estimate D2E/DX2                !
 ! A23   A(13,12,15)           109.4712         estimate D2E/DX2                !
 ! A24   A(14,12,15)           109.4712         estimate D2E/DX2                !
 ! D1    D(2,1,3,4)            150.0            estimate D2E/DX2                !
 ! D2    D(2,1,3,6)             30.0            estimate D2E/DX2                !
 ! D3    D(5,1,3,4)            -30.0            estimate D2E/DX2                !
 ! D4    D(5,1,3,6)           -150.0            estimate D2E/DX2                !
 ! D5    D(2,1,5,10)            30.0            estimate D2E/DX2                !
 ! D6    D(2,1,5,11)           150.0            estimate D2E/DX2                !
 ! D7    D(2,1,5,12)           -90.0            estimate D2E/DX2                !
 ! D8    D(3,1,5,10)          -150.0            estimate D2E/DX2                !
 ! D9    D(3,1,5,11)           -30.0            estimate D2E/DX2                !
 ! D10   D(3,1,5,12)            90.0            estimate D2E/DX2                !
 ! D11   D(1,3,6,7)             60.0            estimate D2E/DX2                !
 ! D12   D(1,3,6,8)            180.0            estimate D2E/DX2                !
 ! D13   D(1,3,6,9)            -60.0            estimate D2E/DX2                !
 ! D14   D(4,3,6,7)            -60.0            estimate D2E/DX2                !
 ! D15   D(4,3,6,8)             60.0            estimate D2E/DX2                !
 ! D16   D(4,3,6,9)            180.0            estimate D2E/DX2                !
 ! D17   D(1,5,12,13)          171.1514         estimate D2E/DX2                !
 ! D18   D(1,5,12,14)          -68.8486         estimate D2E/DX2                !
 ! D19   D(1,5,12,15)           51.1514         estimate D2E/DX2                !
 ! D20   D(10,5,12,13)          51.1514         estimate D2E/DX2                !
 ! D21   D(10,5,12,14)         171.1514         estimate D2E/DX2                !
 ! D22   D(10,5,12,15)         -68.8486         estimate D2E/DX2                !
 ! D23   D(11,5,12,13)         -68.8486         estimate D2E/DX2                !
 ! D24   D(11,5,12,14)          51.1514         estimate D2E/DX2                !
 ! D25   D(11,5,12,15)         171.1514         estimate D2E/DX2                !
 --------------------------------------------------------------------------------
 Trust Radius=3.00D-01 FncErr=5.00D-06 GrdErr=5.00D-06 EigMax=2.50D+02 EigMin=1.00D-04
 Number of steps in this run=     73 maximum allowed number of steps=    100.
 GradGradGradGradGradGradGradGradGradGradGradGradGradGradGradGradGradGrad

 Leave Link  103 at Thu Aug 29 08:24:12 2024, MaxMem=  8589934592 cpu:               0.1 elap:               0.0
 (Enter /share/apps/g16.b01_avx2/g16/l202.exe)
                          Input orientation:                          
 ---------------------------------------------------------------------
 Center     Atomic      Atomic             Coordinates (Angstroms)
 Number     Number       Type             X           Y           Z
 ---------------------------------------------------------------------
      1          6           0        0.641720    0.803417    0.176008
      2          8           0        0.033777   -0.297823    0.140708
      3          7           0        2.076571    0.841025    0.493323
      4          1           0        2.499714    1.620695    0.031733
      5          6           0       -0.117471    2.111690   -0.113218
      6          6           0        2.712275   -0.403089    0.036199
      7          1           0        2.583346   -0.501795   -1.021409
      8          1           0        3.756690   -0.375714    0.267170
      9          1           0        2.259511   -1.237335    0.530100
     10          1           0       -1.138929    2.005166    0.187076
     11          1           0        0.333117    2.913792    0.433136
     12          6           0       -0.055036    2.418850   -1.620983
     13          1           0       -0.706809    3.237177   -1.845555
     14          1           0        0.947607    2.676915   -1.891183
     15          1           0       -0.362527    1.555873   -2.173812
 ---------------------------------------------------------------------
                    Distance matrix (angstroms):
                    1          2          3          4          5
     1  C    0.000000
     2  O    1.258400   0.000000
     3  N    1.470000   2.365231   0.000000
     4  H    2.034920   3.126249   1.000000   0.000000
     5  C    1.540000   2.427572   2.606971   2.666785   0.000000
     6  C    2.400500   2.682602   1.470000   2.034920   3.788654
     7  H    2.628174   2.809346   2.086720   2.370879   3.866462
     8  H    3.331921   3.725875   2.086720   2.370879   4.619632
     9  H    2.628174   2.447081   2.086720   2.911082   4.156906
    10  H    2.148263   2.584792   3.433431   3.662195   1.070000
    11  H    2.148263   3.238764   2.709173   2.554871   1.070000
    12  C    2.514809   3.239097   3.391691   3.145675   1.540000
    13  H    3.439249   4.121885   4.354204   4.052039   2.148263
    14  H    2.806571   3.716549   3.214175   2.687424   2.148263
    15  H    2.663899   2.991696   3.684266   3.614008   2.148263
                    6          7          8          9         10
     6  C    0.000000
     7  H    1.070000   0.000000
     8  H    1.070000   1.747303   0.000000
     9  H    1.070000   1.747303   1.747303   0.000000
    10  H    4.544692   4.647647   5.444455   4.709658   0.000000
    11  H    4.101176   4.341137   4.750710   4.577363   1.747303
    12  C    4.285743   3.981296   5.089594   4.832388   2.148263
    13  H    5.336915   5.048193   6.118775   5.870609   2.415816
    14  H    4.039217   3.679178   4.676321   4.785923   3.020603
    15  H    4.263342   3.773619   5.163077   4.689161   2.525561
                   11         12         13         14         15
    11  H    0.000000
    12  C    2.148263   0.000000
    13  H    2.525560   1.070000   0.000000
    14  H    2.415816   1.070000   1.747303   0.000000
    15  H    3.020603   1.070000   1.747303   1.747303   0.000000
 Stoichiometry    C4H9NO
 Framework group  C1[X(C4H9NO)]
 Deg. of freedom    39
 Full point group                 C1      NOp   1
 Largest Abelian subgroup         C1      NOp   1
 Largest concise Abelian subgroup C1      NOp   1
                         Standard orientation:                         
 ---------------------------------------------------------------------
 Center     Atomic      Atomic             Coordinates (Angstroms)
 Number     Number       Type             X           Y           Z
 ---------------------------------------------------------------------
      1          6           0        0.029023    0.407914   -0.274430
      2          8           0        0.342226    1.495444    0.275800
      3          7           0        1.070827   -0.574520   -0.606644
      4          1           0        0.685567   -1.496331   -0.563745
      5          6           0       -1.445682    0.106237   -0.599754
      6          6           0        2.176606   -0.460343    0.355187
      7          1           0        1.810943   -0.648467    1.343013
      8          1           0        2.934926   -1.175448    0.113371
      9          1           0        2.588834    0.525994    0.309285
     10          1           0       -1.962717    1.022631   -0.794169
     11          1           0       -1.498847   -0.523403   -1.463252
     12          6           0       -2.099727   -0.608152    0.597523
     13          1           0       -3.155164   -0.679928    0.436898
     14          1           0       -1.686369   -1.590142    0.696163
     15          1           0       -1.912082   -0.050745    1.491384
 ---------------------------------------------------------------------
 Rotational constants (GHZ):           6.0688780           2.2980578           1.9997331
 Leave Link  202 at Thu Aug 29 08:24:12 2024, MaxMem=  8589934592 cpu:               0.1 elap:               0.0
 (Enter /share/apps/g16.b01_avx2/g16/l301.exe)
 Standard basis: def2TZVP (5D, 7F)
 Ernie: Thresh=  0.10000D-02 Tol=  0.10000D-05 Strict=F.
 There are   270 symmetry adapted cartesian basis functions of A   symmetry.
 There are   240 symmetry adapted basis functions of A   symmetry.
   240 basis functions,   378 primitive gaussians,   270 cartesian basis functions
    24 alpha electrons       24 beta electrons
       nuclear repulsion energy       242.6956067939 Hartrees.
 IExCor= 1009 DFT=T Ex+Corr=PBE1PBE ExCW=0 ScaHFX=  0.250000
 ScaDFX=  0.750000  0.750000  1.000000  1.000000 ScalE2=  1.000000  1.000000
 IRadAn=  99590 IRanWt=     -1 IRanGd=            0 ICorTp=0 IEmpDi=131
 NAtoms=   15 NActive=   15 NUniq=   15 SFac= 1.00D+00 NAtFMM=   60 NAOKFM=F Big=F
 Integral buffers will be    131072 words long.
 Raffenetti 2 integral format.
 Two-electron integral symmetry is turned on.
 R6Disp:  Grimme-D3 Dispersion energy=       -0.0056041334 Hartrees.
 Nuclear repulsion after empirical dispersion term =      242.6900026605 Hartrees.
 ------------------------------------------------------------------------------
 Polarizable Continuum Model (PCM)
 =================================
 Model                : PCM.
 Atomic radii         : UFF (Universal Force Field).
 Polarization charges : Total charges.
 Charge compensation  : None.
 Solution method      : On-the-fly selection.
 Cavity type          : Scaled VdW (van der Waals Surface) (Alpha=1.100).
 Cavity algorithm     : GePol (No added spheres)
                        Default sphere list used, NSphG=   15.
                        Lebedev-Laikov grids with approx.  5.0 points / Ang**2.
                        Smoothing algorithm: York/Karplus (Gamma=1.0000).
                        Polarization charges: spherical gaussians, with
                                              point-specific exponents (IZeta= 3).
                        Self-potential: point-specific (ISelfS= 7).
                        Self-field    : sphere-specific E.n sum rule (ISelfD= 2).
 1st derivatives      : Analytical E(r).r(x)/FMM algorithm (CHGder, D1EAlg=3).
                        Cavity 1st derivative terms included.
 Solvent              : Water, Eps=  78.355300 Eps(inf)=   1.777849
 ------------------------------------------------------------------------------
 Spheres list:
 ISph  on   Nord     Re0    Alpha      Xe            Ye            Ze
    1   C      1    1.9255  1.100      0.029023      0.407914     -0.274430
    2   O      2    1.7500  1.100      0.342226      1.495444      0.275800
    3   N      3    1.8300  1.100      1.070827     -0.574520     -0.606644
    4   H      4    1.4430  1.100      0.685567     -1.496331     -0.563745
    5   C      5    1.9255  1.100     -1.445682      0.106237     -0.599754
    6   C      6    1.9255  1.100      2.176606     -0.460343      0.355187
    7   H      7    1.4430  1.100      1.810943     -0.648467      1.343013
    8   H      8    1.4430  1.100      2.934926     -1.175448      0.113371
    9   H      9    1.4430  1.100      2.588834      0.525994      0.309285
   10   H     10    1.4430  1.100     -1.962717      1.022631     -0.794169
   11   H     11    1.4430  1.100     -1.498847     -0.523403     -1.463252
   12   C     12    1.9255  1.100     -2.099727     -0.608152      0.597523
   13   H     13    1.4430  1.100     -3.155164     -0.679928      0.436898
   14   H     14    1.4430  1.100     -1.686369     -1.590142      0.696163
   15   H     15    1.4430  1.100     -1.912082     -0.050745      1.491384
 ------------------------------------------------------------------------------
 GePol: Number of generator spheres                  =      15
 GePol: Total number of spheres                      =      15
 GePol: Number of exposed spheres                    =      15 (100.00%)
 GePol: Number of points                             =    1217
 GePol: Average weight of points                     =       0.13
 GePol: Minimum weight of points                     =   0.86D-10
 GePol: Maximum weight of points                     =    0.20577
 GePol: Number of points with low weight             =      68
 GePol: Fraction of low-weight points (<1% of avg)   =       5.59%
 GePol: Cavity surface area                          =    163.706 Ang**2
 GePol: Cavity volume                                =    151.686 Ang**3
 Leave Link  301 at Thu Aug 29 08:24:12 2024, MaxMem=  8589934592 cpu:               0.8 elap:               0.0
 (Enter /share/apps/g16.b01_avx2/g16/l302.exe)
 NPDir=0 NMtPBC=     1 NCelOv=     1 NCel=       1 NClECP=     1 NCelD=      1
         NCelK=      1 NCelE2=     1 NClLst=     1 CellRange=     0.0.
 One-electron integrals computed using PRISM.
 One-electron integral symmetry used in STVInt
   1 Symmetry operations used in ECPInt.
 ECPInt:  NShTT=    5253 NPrTT=   15384 LenC2=    5191 LenP2D=   12524.
 LDataN:  DoStor=T MaxTD1= 6 Len=  172
 NBasis=   240 RedAO= T EigKep=  2.75D-04  NBF=   240
 NBsUse=   240 1.00D-06 EigRej= -1.00D+00 NBFU=   240
 Precomputing XC quadrature grid using
 IXCGrd= 4 IRadAn=       99590 IRanWt=          -1 IRanGd=           0 AccXCQ= 0.00D+00.
 Generated NRdTot=       0 NPtTot=           0 NUsed=           0 NTot=          32
 NSgBfM=   269   269   269   269   269 MxSgAt=    15 MxSgA2=    15.
 Leave Link  302 at Thu Aug 29 08:24:12 2024, MaxMem=  8589934592 cpu:               3.2 elap:               0.1
 (Enter /share/apps/g16.b01_avx2/g16/l303.exe)
 DipDrv:  MaxL=1.
 Leave Link  303 at Thu Aug 29 08:24:12 2024, MaxMem=  8589934592 cpu:               0.5 elap:               0.0
 (Enter /share/apps/g16.b01_avx2/g16/l401.exe)
 ExpMin= 9.52D-02 ExpMax= 2.70D+04 ExpMxC= 9.22D+02 IAcc=4 IRadAn=    199590 AccDes= 0.00D+00
 Harris functional with IExCor= 1009 and IRadAn=  199590 diagonalized for initial guess.
 HarFok:  IExCor= 1009 AccDes= 0.00D+00 IRadAn=    199590 IDoV= 1 UseB2=F ITyADJ=14
 ICtDFT=  3500011 ScaDFX=  1.000000  1.000000  1.000000  1.000000
 FoFCou: FMM=F IPFlag=           0 FMFlag=      100000 FMFlg1=           0
         NFxFlg=           0 DoJE=T BraDBF=F KetDBF=T FulRan=T
         wScrn=  0.000000 ICntrl=       500 IOpCl=  0 I1Cent=   200000004 NGrid=           0
         NMat0=    1 NMatS0=      1 NMatT0=    0 NMatD0=    1 NMtDS0=    0 NMtDT0=    0
 Petite list used in FoFCou.
 Harris En= -287.726424399676    
 JPrj=0 DoOrth=F DoCkMO=F.
 Leave Link  401 at Thu Aug 29 08:24:13 2024, MaxMem=  8589934592 cpu:              17.1 elap:               0.7
 (Enter /share/apps/g16.b01_avx2/g16/l502.exe)
 Integral symmetry usage will be decided dynamically.
 Closed shell SCF:
 Using DIIS extrapolation, IDIIS=  1040.
 NGot=  8589934592 LenX=  8589779719 LenY=  8589706378
 Requested convergence on RMS density matrix=1.00D-08 within 128 cycles.
 Requested convergence on MAX density matrix=1.00D-06.
 Requested convergence on             energy=1.00D-06.
 No special actions if energy rises.
 Fock matrices will be formed incrementally for  20 cycles.

 Cycle   1  Pass 1  IDiag  1:
 FoFJK:  IHMeth= 1 ICntrl=       0 DoSepK=F KAlg= 0 I1Cent=           0 FoldK=F
 IRaf= 970000000 NMat=       1 IRICut=       1 DoRegI=T DoRafI=F ISym2E= 0 IDoP0=0 IntGTp=1.
 FoFCou: FMM=F IPFlag=           0 FMFlag=      100000 FMFlg1=           0
         NFxFlg=           0 DoJE=F BraDBF=F KetDBF=F FulRan=T
         wScrn=  0.000000 ICntrl=         0 IOpCl=  0 I1Cent=           0 NGrid=           0
         NMat0=    1 NMatS0=      1 NMatT0=    0 NMatD0=    1 NMtDS0=    0 NMtDT0=    0
 Symmetry not used in FoFCou.
 Inv3:  Mode=1 IEnd=     4443267.
 Iteration    1 A*A^-1 deviation from unit magnitude is 3.55D-15 for    575.
 Iteration    1 A*A^-1 deviation from orthogonality  is 2.75D-15 for    735    554.
 Iteration    1 A^-1*A deviation from unit magnitude is 3.33D-15 for    575.
 Iteration    1 A^-1*A deviation from orthogonality  is 1.78D-15 for   1089    457.
 E= -287.394008973544    
 DIIS: error= 3.05D-02 at cycle   1 NSaved=   1.
 NSaved= 1 IEnMin= 1 EnMin= -287.394008973544     IErMin= 1 ErrMin= 3.05D-02
 ErrMax= 3.05D-02  0.00D+00 EMaxC= 1.00D-01 BMatC= 2.55D-01 BMatP= 2.55D-01
 IDIUse=3 WtCom= 6.95D-01 WtEn= 3.05D-01
 Coeff-Com:  0.100D+01
 Coeff-En:   0.100D+01
 Coeff:      0.100D+01
 Gap=     0.228 Goal=   None    Shift=    0.000
 GapD=    0.228 DampG=1.000 DampE=0.500 DampFc=0.5000 IDamp=-1.
 Damping current iteration by 5.00D-01
 RMSDP=3.92D-03 MaxDP=1.67D-01              OVMax= 1.86D-01

 Cycle   2  Pass 1  IDiag  1:
 RMSU=  1.94D-03    CP:  9.77D-01
 E= -287.475488534887     Delta-E=       -0.081479561343 Rises=F Damp=T
 DIIS: error= 5.42D-03 at cycle   2 NSaved=   2.
 NSaved= 2 IEnMin= 2 EnMin= -287.475488534887     IErMin= 2 ErrMin= 5.42D-03
 ErrMax= 5.42D-03  0.00D+00 EMaxC= 1.00D-01 BMatC= 2.50D-02 BMatP= 2.55D-01
 IDIUse=3 WtCom= 9.46D-01 WtEn= 5.42D-02
 Coeff-Com:  0.135D+00 0.865D+00
 Coeff-En:   0.218D+00 0.782D+00
 Coeff:      0.139D+00 0.861D+00
 Gap=     0.280 Goal=   None    Shift=    0.000
 RMSDP=1.08D-03 MaxDP=6.30D-02 DE=-8.15D-02 OVMax= 1.26D-01

 Cycle   3  Pass 1  IDiag  1:
 RMSU=  8.29D-04    CP:  9.72D-01  6.47D-01
 E= -287.585562640414     Delta-E=       -0.110074105527 Rises=F Damp=F
 DIIS: error= 7.30D-03 at cycle   3 NSaved=   3.
 NSaved= 3 IEnMin= 3 EnMin= -287.585562640414     IErMin= 2 ErrMin= 5.42D-03
 ErrMax= 7.30D-03  0.00D+00 EMaxC= 1.00D-01 BMatC= 2.58D-02 BMatP= 2.50D-02
 IDIUse=3 WtCom= 9.27D-01 WtEn= 7.30D-02
 Coeff-Com:  0.142D-01 0.503D+00 0.483D+00
 Coeff-En:   0.000D+00 0.000D+00 0.100D+01
 Coeff:      0.131D-01 0.466D+00 0.520D+00
 Gap=     0.269 Goal=   None    Shift=    0.000
 RMSDP=5.31D-04 MaxDP=2.27D-02 DE=-1.10D-01 OVMax= 5.07D-02

 Cycle   4  Pass 1  IDiag  1:
 RMSU=  3.25D-04    CP:  9.76D-01  7.45D-01  5.50D-01
 E= -287.602679175805     Delta-E=       -0.017116535391 Rises=F Damp=F
 DIIS: error= 2.45D-03 at cycle   4 NSaved=   4.
 NSaved= 4 IEnMin= 4 EnMin= -287.602679175805     IErMin= 4 ErrMin= 2.45D-03
 ErrMax= 2.45D-03  0.00D+00 EMaxC= 1.00D-01 BMatC= 3.71D-03 BMatP= 2.50D-02
 IDIUse=3 WtCom= 9.76D-01 WtEn= 2.45D-02
 Coeff-Com: -0.956D-02 0.808D-01 0.293D+00 0.636D+00
 Coeff-En:   0.000D+00 0.000D+00 0.143D+00 0.857D+00
 Coeff:     -0.933D-02 0.789D-01 0.290D+00 0.641D+00
 Gap=     0.262 Goal=   None    Shift=    0.000
 RMSDP=1.81D-04 MaxDP=6.10D-03 DE=-1.71D-02 OVMax= 1.57D-02

 Cycle   5  Pass 1  IDiag  1:
 RMSU=  7.58D-05    CP:  9.75D-01  7.12D-01  6.91D-01  7.10D-01
 E= -287.605484907270     Delta-E=       -0.002805731464 Rises=F Damp=F
 DIIS: error= 4.29D-04 at cycle   5 NSaved=   5.
 NSaved= 5 IEnMin= 5 EnMin= -287.605484907270     IErMin= 5 ErrMin= 4.29D-04
 ErrMax= 4.29D-04  0.00D+00 EMaxC= 1.00D-01 BMatC= 1.46D-04 BMatP= 3.71D-03
 IDIUse=3 WtCom= 9.96D-01 WtEn= 4.29D-03
 Coeff-Com: -0.474D-02 0.173D-01 0.119D+00 0.317D+00 0.551D+00
 Coeff-En:   0.000D+00 0.000D+00 0.000D+00 0.000D+00 0.100D+01
 Coeff:     -0.472D-02 0.172D-01 0.119D+00 0.315D+00 0.553D+00
 Gap=     0.263 Goal=   None    Shift=    0.000
 RMSDP=4.19D-05 MaxDP=1.42D-03 DE=-2.81D-03 OVMax= 3.84D-03

 Cycle   6  Pass 1  IDiag  1:
 RMSU=  2.18D-05    CP:  9.75D-01  7.20D-01  6.83D-01  7.43D-01  6.23D-01
 E= -287.605599257713     Delta-E=       -0.000114350443 Rises=F Damp=F
 DIIS: error= 1.76D-04 at cycle   6 NSaved=   6.
 NSaved= 6 IEnMin= 6 EnMin= -287.605599257713     IErMin= 6 ErrMin= 1.76D-04
 ErrMax= 1.76D-04  0.00D+00 EMaxC= 1.00D-01 BMatC= 1.47D-05 BMatP= 1.46D-04
 IDIUse=3 WtCom= 9.98D-01 WtEn= 1.76D-03
 Coeff-Com: -0.159D-02 0.164D-02 0.354D-01 0.105D+00 0.297D+00 0.563D+00
 Coeff-En:   0.000D+00 0.000D+00 0.000D+00 0.000D+00 0.130D-01 0.987D+00
 Coeff:     -0.159D-02 0.164D-02 0.353D-01 0.105D+00 0.296D+00 0.564D+00
 Gap=     0.262 Goal=   None    Shift=    0.000
 RMSDP=1.11D-05 MaxDP=4.40D-04 DE=-1.14D-04 OVMax= 9.26D-04

 Cycle   7  Pass 1  IDiag  1:
 RMSU=  6.36D-06    CP:  9.75D-01  7.19D-01  6.85D-01  7.41D-01  6.77D-01
                    CP:  6.55D-01
 E= -287.605611124179     Delta-E=       -0.000011866466 Rises=F Damp=F
 DIIS: error= 2.40D-05 at cycle   7 NSaved=   7.
 NSaved= 7 IEnMin= 7 EnMin= -287.605611124179     IErMin= 7 ErrMin= 2.40D-05
 ErrMax= 2.40D-05  0.00D+00 EMaxC= 1.00D-01 BMatC= 3.86D-07 BMatP= 1.47D-05
 IDIUse=1 WtCom= 1.00D+00 WtEn= 0.00D+00
 Coeff-Com: -0.333D-03-0.176D-03 0.772D-02 0.241D-01 0.918D-01 0.218D+00
 Coeff-Com:  0.659D+00
 Coeff:     -0.333D-03-0.176D-03 0.772D-02 0.241D-01 0.918D-01 0.218D+00
 Coeff:      0.659D+00
 Gap=     0.262 Goal=   None    Shift=    0.000
 RMSDP=3.08D-06 MaxDP=7.75D-05 DE=-1.19D-05 OVMax= 1.61D-04

 Cycle   8  Pass 1  IDiag  1:
 RMSU=  1.99D-06    CP:  9.75D-01  7.18D-01  6.86D-01  7.43D-01  6.85D-01
                    CP:  6.84D-01  7.82D-01
 E= -287.605611437265     Delta-E=       -0.000000313087 Rises=F Damp=F
 DIIS: error= 1.15D-05 at cycle   8 NSaved=   8.
 NSaved= 8 IEnMin= 8 EnMin= -287.605611437265     IErMin= 8 ErrMin= 1.15D-05
 ErrMax= 1.15D-05  0.00D+00 EMaxC= 1.00D-01 BMatC= 4.49D-08 BMatP= 3.86D-07
 IDIUse=1 WtCom= 1.00D+00 WtEn= 0.00D+00
 Coeff-Com:  0.600D-04-0.300D-03-0.910D-03-0.262D-02 0.387D-02 0.184D-01
 Coeff-Com:  0.270D+00 0.712D+00
 Coeff:      0.600D-04-0.300D-03-0.910D-03-0.262D-02 0.387D-02 0.184D-01
 Coeff:      0.270D+00 0.712D+00
 Gap=     0.262 Goal=   None    Shift=    0.000
 RMSDP=7.88D-07 MaxDP=3.09D-05 DE=-3.13D-07 OVMax= 4.18D-05

 Cycle   9  Pass 1  IDiag  1:
 RMSU=  3.67D-07    CP:  9.75D-01  7.19D-01  6.86D-01  7.42D-01  6.87D-01
                    CP:  6.88D-01  8.58D-01  8.08D-01
 E= -287.605611478799     Delta-E=       -0.000000041534 Rises=F Damp=F
 DIIS: error= 1.46D-06 at cycle   9 NSaved=   9.
 NSaved= 9 IEnMin= 9 EnMin= -287.605611478799     IErMin= 9 ErrMin= 1.46D-06
 ErrMax= 1.46D-06  0.00D+00 EMaxC= 1.00D-01 BMatC= 5.58D-10 BMatP= 4.49D-08
 IDIUse=1 WtCom= 1.00D+00 WtEn= 0.00D+00
 Coeff-Com:  0.239D-04-0.649D-04-0.424D-03-0.131D-02-0.166D-02-0.374D-02
 Coeff-Com:  0.387D-01 0.155D+00 0.813D+00
 Coeff:      0.239D-04-0.649D-04-0.424D-03-0.131D-02-0.166D-02-0.374D-02
 Coeff:      0.387D-01 0.155D+00 0.813D+00
 Gap=     0.262 Goal=   None    Shift=    0.000
 RMSDP=1.33D-07 MaxDP=4.65D-06 DE=-4.15D-08 OVMax= 6.69D-06

 Cycle  10  Pass 1  IDiag  1:
 RMSU=  6.89D-08    CP:  9.75D-01  7.19D-01  6.86D-01  7.43D-01  6.88D-01
                    CP:  6.88D-01  8.63D-01  8.38D-01  9.42D-01
 E= -287.605611479336     Delta-E=       -0.000000000537 Rises=F Damp=F
 DIIS: error= 1.80D-07 at cycle  10 NSaved=  10.
 NSaved=10 IEnMin=10 EnMin= -287.605611479336     IErMin=10 ErrMin= 1.80D-07
 ErrMax= 1.80D-07  0.00D+00 EMaxC= 1.00D-01 BMatC= 1.57D-11 BMatP= 5.58D-10
 IDIUse=1 WtCom= 1.00D+00 WtEn= 0.00D+00
 Coeff-Com:  0.535D-06 0.132D-05-0.239D-04-0.839D-04-0.310D-03-0.129D-02
 Coeff-Com: -0.430D-02-0.451D-02 0.119D+00 0.892D+00
 Coeff:      0.535D-06 0.132D-05-0.239D-04-0.839D-04-0.310D-03-0.129D-02
 Coeff:     -0.430D-02-0.451D-02 0.119D+00 0.892D+00
 Gap=     0.262 Goal=   None    Shift=    0.000
 RMSDP=2.47D-08 MaxDP=5.71D-07 DE=-5.37D-10 OVMax= 2.20D-06

 Cycle  11  Pass 1  IDiag  1:
 RMSU=  1.54D-08    CP:  9.75D-01  7.19D-01  6.86D-01  7.43D-01  6.88D-01
                    CP:  6.88D-01  8.64D-01  8.42D-01  9.81D-01  1.05D+00
 E= -287.605611479356     Delta-E=       -0.000000000019 Rises=F Damp=F
 DIIS: error= 9.86D-08 at cycle  11 NSaved=  11.
 NSaved=11 IEnMin=11 EnMin= -287.605611479356     IErMin=11 ErrMin= 9.86D-08
 ErrMax= 9.86D-08  0.00D+00 EMaxC= 1.00D-01 BMatC= 3.23D-12 BMatP= 1.57D-11
 IDIUse=1 WtCom= 1.00D+00 WtEn= 0.00D+00
 Coeff-Com: -0.952D-06 0.330D-05 0.105D-04 0.253D-04-0.430D-04-0.363D-03
 Coeff-Com: -0.358D-02-0.913D-02 0.951D-02 0.352D+00 0.651D+00
 Coeff:     -0.952D-06 0.330D-05 0.105D-04 0.253D-04-0.430D-04-0.363D-03
 Coeff:     -0.358D-02-0.913D-02 0.951D-02 0.352D+00 0.651D+00
 Gap=     0.262 Goal=   None    Shift=    0.000
 RMSDP=5.89D-09 MaxDP=2.38D-07 DE=-1.95D-11 OVMax= 4.11D-07

 Error on total polarization charges =  0.01058
 SCF Done:  E(RPBE1PBE) =  -287.605611479     A.U. after   11 cycles
            NFock= 11  Conv=0.59D-08     -V/T= 2.0052
 KE= 2.861320282166D+02 PE=-1.156443871727D+03 EE= 3.400162293703D+02
 Leave Link  502 at Thu Aug 29 08:24:23 2024, MaxMem=  8589934592 cpu:             230.3 elap:               9.7
 (Enter /share/apps/g16.b01_avx2/g16/l601.exe)
 Copying SCF densities to generalized density rwf, IOpCl= 0 IROHF=0.

 **********************************************************************

            Population analysis using the SCF Density.

 **********************************************************************

 Orbital symmetries:
       Occupied  (A) (A) (A) (A) (A) (A) (A) (A) (A) (A) (A) (A)
                 (A) (A) (A) (A) (A) (A) (A) (A) (A) (A) (A) (A)
       Virtual   (A) (A) (A) (A) (A) (A) (A) (A) (A) (A) (A) (A)
                 (A) (A) (A) (A) (A) (A) (A) (A) (A) (A) (A) (A)
                 (A) (A) (A) (A) (A) (A) (A) (A) (A) (A) (A) (A)
                 (A) (A) (A) (A) (A) (A) (A) (A) (A) (A) (A) (A)
                 (A) (A) (A) (A) (A) (A) (A) (A) (A) (A) (A) (A)
                 (A) (A) (A) (A) (A) (A) (A) (A) (A) (A) (A) (A)
                 (A) (A) (A) (A) (A) (A) (A) (A) (A) (A) (A) (A)
                 (A) (A) (A) (A) (A) (A) (A) (A) (A) (A) (A) (A)
                 (A) (A) (A) (A) (A) (A) (A) (A) (A) (A) (A) (A)
                 (A) (A) (A) (A) (A) (A) (A) (A) (A) (A) (A) (A)
                 (A) (A) (A) (A) (A) (A) (A) (A) (A) (A) (A) (A)
                 (A) (A) (A) (A) (A) (A) (A) (A) (A) (A) (A) (A)
                 (A) (A) (A) (A) (A) (A) (A) (A) (A) (A) (A) (A)
                 (A) (A) (A) (A) (A) (A) (A) (A) (A) (A) (A) (A)
                 (A) (A) (A) (A) (A) (A) (A) (A) (A) (A) (A) (A)
                 (A) (A) (A) (A) (A) (A) (A) (A) (A) (A) (A) (A)
                 (A) (A) (A) (A) (A) (A) (A) (A) (A) (A) (A) (A)
                 (A) (A) (A) (A) (A) (A) (A) (A) (A) (A) (A) (A)
 The electronic state is 1-A.
 Alpha  occ. eigenvalues --  -19.19235 -14.40990 -10.34231 -10.23608 -10.23277
 Alpha  occ. eigenvalues --  -10.21390  -1.05932  -0.93607  -0.80912  -0.71450
 Alpha  occ. eigenvalues --   -0.66289  -0.58209  -0.52312  -0.49342  -0.46508
 Alpha  occ. eigenvalues --   -0.45119  -0.44992  -0.40943  -0.39895  -0.38901
 Alpha  occ. eigenvalues --   -0.37285  -0.36061  -0.29679  -0.27296
 Alpha virt. eigenvalues --   -0.01063   0.04189   0.07942   0.09215   0.09525
 Alpha virt. eigenvalues --    0.11544   0.12555   0.13348   0.13757   0.14201
 Alpha virt. eigenvalues --    0.17168   0.17751   0.18749   0.20084   0.21833
 Alpha virt. eigenvalues --    0.22645   0.24189   0.25644   0.26355   0.28113
 Alpha virt. eigenvalues --    0.30148   0.33405   0.35888   0.37221   0.38012
 Alpha virt. eigenvalues --    0.40064   0.41082   0.41754   0.42872   0.43667
 Alpha virt. eigenvalues --    0.44243   0.45167   0.45821   0.47191   0.47715
 Alpha virt. eigenvalues --    0.49067   0.50824   0.52160   0.53625   0.55201
 Alpha virt. eigenvalues --    0.55704   0.59213   0.60677   0.61694   0.65065
 Alpha virt. eigenvalues --    0.66188   0.69073   0.74133   0.76951   0.80808
 Alpha virt. eigenvalues --    0.83152   0.85395   0.87064   0.88838   0.90531
 Alpha virt. eigenvalues --    0.92113   0.94752   0.99427   1.02116   1.02851
 Alpha virt. eigenvalues --    1.06533   1.09658   1.11715   1.12772   1.14995
 Alpha virt. eigenvalues --    1.16737   1.26061   1.27097   1.33971   1.35792
 Alpha virt. eigenvalues --    1.39652   1.45626   1.47602   1.48630   1.50305
 Alpha virt. eigenvalues --    1.51842   1.54864   1.55160   1.56013   1.56871
 Alpha virt. eigenvalues --    1.57773   1.58574   1.61505   1.63102   1.65998
 Alpha virt. eigenvalues --    1.70205   1.73692   1.74961   1.78030   1.79843
 Alpha virt. eigenvalues --    1.83117   1.86657   1.87406   1.89061   1.94926
 Alpha virt. eigenvalues --    1.96061   1.98068   2.00325   2.03100   2.06062
 Alpha virt. eigenvalues --    2.07965   2.13547   2.14721   2.18788   2.19726
 Alpha virt. eigenvalues --    2.21663   2.26964   2.31575   2.32810   2.34238
 Alpha virt. eigenvalues --    2.36481   2.38681   2.39962   2.41659   2.42591
 Alpha virt. eigenvalues --    2.47087   2.49823   2.55207   2.57672   2.59138
 Alpha virt. eigenvalues --    2.61370   2.62753   2.63830   2.65714   2.65973
 Alpha virt. eigenvalues --    2.68199   2.71156   2.73080   2.75968   2.77941
 Alpha virt. eigenvalues --    2.84398   2.87386   2.92955   2.95232   2.97876
 Alpha virt. eigenvalues --    3.02222   3.04777   3.07025   3.08428   3.09158
 Alpha virt. eigenvalues --    3.10828   3.14918   3.16375   3.17481   3.18833
 Alpha virt. eigenvalues --    3.20662   3.23238   3.23830   3.27566   3.28683
 Alpha virt. eigenvalues --    3.31162   3.34600   3.37627   3.40382   3.41128
 Alpha virt. eigenvalues --    3.44437   3.47479   3.48545   3.52221   3.55312
 Alpha virt. eigenvalues --    3.57055   3.57734   3.63767   3.66933   3.72703
 Alpha virt. eigenvalues --    3.72975   3.78948   3.82699   3.84396   3.94478
 Alpha virt. eigenvalues --    3.97144   4.02283   4.07147   4.11353   4.14231
 Alpha virt. eigenvalues --    4.17784   4.28778   4.38306   4.40441   4.43474
 Alpha virt. eigenvalues --    4.46310   4.49630   4.53937   4.56790   4.61996
 Alpha virt. eigenvalues --    4.67856   4.78394   4.80385   4.85406   4.99777
 Alpha virt. eigenvalues --    5.01147   5.07358   5.14721   5.17487   5.22605
 Alpha virt. eigenvalues --    5.24072   5.28100   5.35936   5.47464   5.58666
 Alpha virt. eigenvalues --    5.70824   5.84903   6.03890   6.21666   6.40760
 Alpha virt. eigenvalues --    6.45319   6.55226   6.82676   7.02020   7.04136
 Alpha virt. eigenvalues --   22.44833  22.51539  22.55213  22.94763  32.27473
 Alpha virt. eigenvalues --   43.92995
          Condensed to atoms (all electrons):
               1          2          3          4          5          6
     1  C    4.543540   0.627883   0.371273  -0.034972   0.353065  -0.038089
     2  O    0.627883   7.993350  -0.110876   0.004538  -0.086055  -0.012631
     3  N    0.371273  -0.110876   6.571679   0.363746  -0.095015   0.280701
     4  H   -0.034972   0.004538   0.363746   0.457416   0.002571  -0.034620
     5  C    0.353065  -0.086055  -0.095015   0.002571   5.028835   0.006638
     6  C   -0.038089  -0.012631   0.280701  -0.034620   0.006638   4.854210
     7  H    0.001190   0.004444  -0.061334  -0.005967   0.001741   0.434834
     8  H    0.008275   0.002263  -0.028695  -0.004440   0.000226   0.398865
     9  H   -0.016595   0.013126  -0.027934   0.007791   0.001407   0.407989
    10  H   -0.021323   0.006118   0.007267   0.000425   0.389418  -0.000708
    11  H   -0.035884   0.005522   0.009343  -0.002713   0.388796   0.000361
    12  C   -0.028044  -0.005909   0.005922   0.000628   0.298777  -0.001449
    13  H    0.007789  -0.000458  -0.000325   0.000035  -0.028508   0.000050
    14  H   -0.003195   0.000035   0.003026   0.001091  -0.032345  -0.000792
    15  H   -0.001415   0.008224   0.000320  -0.000533  -0.046666   0.000191
               7          8          9         10         11         12
     1  C    0.001190   0.008275  -0.016595  -0.021323  -0.035884  -0.028044
     2  O    0.004444   0.002263   0.013126   0.006118   0.005522  -0.005909
     3  N   -0.061334  -0.028695  -0.027934   0.007267   0.009343   0.005922
     4  H   -0.005967  -0.004440   0.007791   0.000425  -0.002713   0.000628
     5  C    0.001741   0.000226   0.001407   0.389418   0.388796   0.298777
     6  C    0.434834   0.398865   0.407989  -0.000708   0.000361  -0.001449
     7  H    0.546036  -0.026765  -0.033640  -0.000188   0.000252  -0.000322
     8  H   -0.026765   0.525339  -0.018645   0.000011  -0.000126  -0.000073
     9  H   -0.033640  -0.018645   0.525385   0.000032  -0.000311   0.000070
    10  H   -0.000188   0.000011   0.000032   0.540432  -0.023130  -0.021088
    11  H    0.000252  -0.000126  -0.000311  -0.023130   0.552968  -0.027104
    12  C   -0.000322  -0.000073   0.000070  -0.021088  -0.027104   4.938184
    13  H   -0.000028   0.000002   0.000009  -0.006565  -0.004034   0.405268
    14  H   -0.000267   0.000058   0.000008   0.006815  -0.005995   0.407278
    15  H    0.000453  -0.000020  -0.000165  -0.002985   0.008550   0.411506
              13         14         15
     1  C    0.007789  -0.003195  -0.001415
     2  O   -0.000458   0.000035   0.008224
     3  N   -0.000325   0.003026   0.000320
     4  H    0.000035   0.001091  -0.000533
     5  C   -0.028508  -0.032345  -0.046666
     6  C    0.000050  -0.000792   0.000191
     7  H   -0.000028  -0.000267   0.000453
     8  H    0.000002   0.000058  -0.000020
     9  H    0.000009   0.000008  -0.000165
    10  H   -0.006565   0.006815  -0.002985
    11  H   -0.004034  -0.005995   0.008550
    12  C    0.405268   0.407278   0.411506
    13  H    0.525344  -0.019486  -0.021645
    14  H   -0.019486   0.535722  -0.022319
    15  H   -0.021645  -0.022319   0.533915
 Mulliken charges:
               1
     1  C    0.266501
     2  O   -0.449573
     3  N   -0.289098
     4  H    0.245004
     5  C   -0.182884
     6  C   -0.295551
     7  H    0.139562
     8  H    0.143725
     9  H    0.141473
    10  H    0.125470
    11  H    0.133506
    12  C   -0.383644
    13  H    0.142554
    14  H    0.130365
    15  H    0.132589
 Sum of Mulliken charges =  -0.00000
 Mulliken charges with hydrogens summed into heavy atoms:
               1
     1  C    0.266501
     2  O   -0.449573
     3  N   -0.044093
     5  C    0.076092
     6  C    0.129209
    12  C    0.021864
 Electronic spatial extent (au):  <R**2>=            683.2768
 Charge=             -0.0000 electrons
 Dipole moment (field-independent basis, Debye):
    X=             -1.2435    Y=             -4.3588    Z=             -0.2160  Tot=              4.5379
 Quadrupole moment (field-independent basis, Debye-Ang):
   XX=            -33.0824   YY=            -40.1661   ZZ=            -38.8867
   XY=             -2.2224   XZ=              2.0322   YZ=             -1.2955
 Traceless Quadrupole moment (field-independent basis, Debye-Ang):
   XX=              4.2960   YY=             -2.7877   ZZ=             -1.5083
   XY=             -2.2224   XZ=              2.0322   YZ=             -1.2955
 Octapole moment (field-independent basis, Debye-Ang**2):
  XXX=              2.3816  YYY=            -13.0463  ZZZ=              2.3568  XYY=              0.9377
  XXY=             -1.3435  XXZ=              1.1469  XZZ=             -2.2119  YZZ=              0.5952
  YYZ=             -3.6803  XYZ=             -0.9378
 Hexadecapole moment (field-independent basis, Debye-Ang**3):
 XXXX=           -563.0096 YYYY=           -190.1051 ZZZZ=           -118.8418 XXXY=             -6.7462
 XXXZ=              6.3745 YYYX=             -7.9412 YYYZ=              0.7882 ZZZX=              5.4103
 ZZZY=              1.7691 XXYY=           -126.1060 XXZZ=           -124.8033 YYZZ=            -50.5621
 XXYZ=             -0.0694 YYXZ=              0.1587 ZZXY=             -0.0034
 N-N= 2.426900026605D+02 E-N=-1.156443868567D+03  KE= 2.861320282166D+02
 No NMR shielding tensors so no spin-rotation constants.
 Leave Link  601 at Thu Aug 29 08:24:23 2024, MaxMem=  8589934592 cpu:               2.0 elap:               0.1
 (Enter /share/apps/g16.b01_avx2/g16/l701.exe)
 ... and contract with generalized density number  0.
 Compute integral first derivatives.
 R6Disp: Adding Grimme-D3 dispersion energy 1st derivatives to the gradient.
   1 Symmetry operations used in ECPInt.
 ECPInt:  NShTT=    5253 NPrTT=   15384 LenC2=    5191 LenP2D=   12524.
 LDataN:  DoStor=T MaxTD1= 7 Len=  274
 D1PCM: PCM CHGder 1st derivatives, ID1Alg=3 FixD1E=F DoIter=F DoCFld=F I1PDM=0.
 GePol: Maximum number of non-zero 1st derivatives   =     222
 Leave Link  701 at Thu Aug 29 08:24:23 2024, MaxMem=  8589934592 cpu:               9.9 elap:               0.4
 (Enter /share/apps/g16.b01_avx2/g16/l702.exe)
 L702 exits ... SP integral derivatives will be done elsewhere.
 Leave Link  702 at Thu Aug 29 08:24:23 2024, MaxMem=  8589934592 cpu:               0.3 elap:               0.0
 (Enter /share/apps/g16.b01_avx2/g16/l703.exe)
 Integral derivatives from FoFJK, PRISM(SPDF).
 Compute integral first derivatives, UseDBF=F ICtDFT=           0.
 Calling FoFJK, ICntrl=      2127 FMM=F ISym2X=0 I1Cent= 0 IOpClX= 0 NMat=1 NMatS=1 NMatT=0.
 FoFJK:  IHMeth= 1 ICntrl=    2127 DoSepK=F KAlg= 0 I1Cent=           0 FoldK=F
 IRaf=         0 NMat=       1 IRICut=       1 DoRegI=T DoRafI=F ISym2E= 0 IDoP0=0 IntGTp=1.
 FoFCou: FMM=F IPFlag=           0 FMFlag=      100000 FMFlg1=         800
         NFxFlg=           0 DoJE=F BraDBF=F KetDBF=F FulRan=T
         wScrn=  0.000000 ICntrl=      2127 IOpCl=  0 I1Cent=           0 NGrid=           0
         NMat0=    1 NMatS0=      1 NMatT0=    0 NMatD0=    1 NMtDS0=    0 NMtDT0=    0
 Symmetry not used in FoFCou.
 Leave Link  703 at Thu Aug 29 08:24:26 2024, MaxMem=  8589934592 cpu:              72.9 elap:               3.0
 (Enter /share/apps/g16.b01_avx2/g16/l716.exe)
 Dipole        =-4.89213303D-01-1.71489634D+00-8.49746939D-02
 ***** Axes restored to original set *****
 -------------------------------------------------------------------
 Center     Atomic                   Forces (Hartrees/Bohr)
 Number     Number              X              Y              Z
 -------------------------------------------------------------------
      1        6          -0.000947082   -0.037996358    0.011105791
      2        8           0.031540527    0.053647951    0.001867795
      3        7          -0.062092000   -0.016629179   -0.023745621
      4        1           0.004240104    0.014519430    0.000421023
      5        6           0.025532088   -0.018686212   -0.011127714
      6        6          -0.002782938    0.014280638    0.011038691
      7        1          -0.000170028   -0.005940354   -0.015734716
      8        1           0.013388915    0.001057918    0.003942574
      9        1          -0.004383838   -0.009312925    0.005492527
     10        1          -0.011262862   -0.005468324    0.006602438
     11        1           0.005257474    0.012168012    0.008807421
     12        6           0.001190443   -0.006296858    0.022504779
     13        1          -0.007737565    0.011055768   -0.004096038
     14        1           0.012856826    0.003887029   -0.007235469
     15        1          -0.004630064   -0.010286534   -0.009843479
 -------------------------------------------------------------------
 Cartesian Forces:  Max     0.062092000 RMS     0.017700860
 Leave Link  716 at Thu Aug 29 08:24:26 2024, MaxMem=  8589934592 cpu:               0.3 elap:               0.0
 (Enter /share/apps/g16.b01_avx2/g16/l103.exe)

 GradGradGradGradGradGradGradGradGradGradGradGradGradGradGradGradGradGrad
 Berny optimization.
 FormGI is forming the generalized inverse of G from B-inverse, IUseBI=4.
 Internal  Forces:  Max     0.062238159 RMS     0.012955016
 Search for a local minimum.
 Step number   1 out of a maximum of   73
 All quantities printed in internal units (Hartrees-Bohrs-Radians)
 RMS Force = .12955D-01 SwitMx=.10000D-02 MixMth= 1
 Mixed Optimization -- RFO/linear search
 Second derivative matrix not updated -- first step.
 ITU=  0
     Eigenvalues ---    0.00237   0.00237   0.00448   0.00766   0.00766
     Eigenvalues ---    0.03399   0.04356   0.05410   0.05720   0.05720
     Eigenvalues ---    0.07537   0.07537   0.08669   0.11287   0.12376
     Eigenvalues ---    0.16000   0.16000   0.16000   0.16000   0.16000
     Eigenvalues ---    0.16000   0.21983   0.23464   0.25000   0.25000
     Eigenvalues ---    0.28519   0.28519   0.35740   0.35740   0.37230
     Eigenvalues ---    0.37230   0.37230   0.37230   0.37230   0.37230
     Eigenvalues ---    0.37230   0.37230   0.47688   0.80209
 RFO step:  Lambda=-2.61211014D-02 EMin= 2.36824135D-03
 Linear search not attempted -- first point.
 Iteration  1 RMS(Cart)=  0.08612368 RMS(Int)=  0.00477679
 Iteration  2 RMS(Cart)=  0.00799675 RMS(Int)=  0.00125684
 Iteration  3 RMS(Cart)=  0.00002889 RMS(Int)=  0.00125669
 Iteration  4 RMS(Cart)=  0.00000002 RMS(Int)=  0.00125669
 ITry= 1 IFail=0 DXMaxC= 2.40D-01 DCOld= 1.00D+10 DXMaxT= 3.00D-01 DXLimC= 3.00D+00 Rises=F
 Variable       Old X    -DE/DX   Delta X   Delta X   Delta X     New X
                                 (Linear)    (Quad)   (Total)
    R1        2.37803  -0.06224   0.00000  -0.07515  -0.07515   2.30288
    R2        2.77790  -0.05464   0.00000  -0.14247  -0.14247   2.63542
    R3        2.91018  -0.02308   0.00000  -0.07413  -0.07413   2.83605
    R4        1.88973   0.01292   0.00000   0.02568   0.02568   1.91541
    R5        2.77790   0.00109   0.00000   0.00283   0.00283   2.78073
    R6        2.02201   0.01315   0.00000   0.03300   0.03300   2.05500
    R7        2.02201   0.01584   0.00000   0.03975   0.03975   2.06176
    R8        2.91018  -0.00157   0.00000  -0.00504  -0.00504   2.90514
    R9        2.02201   0.01613   0.00000   0.04047   0.04047   2.06248
   R10        2.02201   0.01394   0.00000   0.03500   0.03500   2.05700
   R11        2.02201   0.01165   0.00000   0.02925   0.02925   2.05126
   R12        2.02201   0.01403   0.00000   0.03521   0.03521   2.05722
   R13        2.02201   0.01481   0.00000   0.03718   0.03718   2.05919
   R14        2.02201   0.01471   0.00000   0.03692   0.03692   2.05892
    A1        2.09440   0.00618   0.00000   0.02238   0.02234   2.11673
    A2        2.09440   0.01013   0.00000   0.03670   0.03666   2.13106
    A3        2.09440  -0.01631   0.00000  -0.05908  -0.05912   2.03527
    A4        1.91063  -0.00749   0.00000   0.00166  -0.00524   1.90539
    A5        1.91063   0.02385   0.00000   0.10714   0.10304   2.01368
    A6        1.91063   0.00030   0.00000   0.05208   0.04803   1.95866
    A7        1.91063  -0.00402   0.00000  -0.03519  -0.03515   1.87549
    A8        1.91063   0.00074   0.00000   0.00725   0.00717   1.91780
    A9        1.91063   0.00064   0.00000   0.00284   0.00284   1.91347
   A10        1.91063  -0.00031   0.00000  -0.00261  -0.00282   1.90782
   A11        1.91063   0.00284   0.00000   0.01838   0.01831   1.92894
   A12        1.91063   0.00011   0.00000   0.00932   0.00920   1.91984
   A13        1.91063   0.00762   0.00000   0.04442   0.04437   1.95500
   A14        1.91063  -0.00289   0.00000  -0.01724  -0.01730   1.89333
   A15        1.91063  -0.00055   0.00000  -0.00473  -0.00490   1.90573
   A16        1.91063  -0.00138   0.00000  -0.00387  -0.00382   1.90682
   A17        1.91063  -0.00257   0.00000  -0.01039  -0.01054   1.90010
   A18        1.91063  -0.00023   0.00000  -0.00819  -0.00838   1.90226
   A19        1.91063   0.00030   0.00000  -0.00017  -0.00017   1.91046
   A20        1.91063   0.00455   0.00000   0.02569   0.02551   1.93615
   A21        1.91063   0.00283   0.00000   0.01572   0.01556   1.92620
   A22        1.91063  -0.00263   0.00000  -0.01521  -0.01523   1.89541
   A23        1.91063  -0.00202   0.00000  -0.01330  -0.01329   1.89735
   A24        1.91063  -0.00303   0.00000  -0.01273  -0.01305   1.89759
    D1        2.61799   0.00490   0.00000   0.05726   0.05702   2.67502
    D2        0.52360  -0.00549   0.00000  -0.07316  -0.07301   0.45059
    D3       -0.52360   0.00439   0.00000   0.04068   0.04053  -0.48306
    D4       -2.61799  -0.00599   0.00000  -0.08973  -0.08950  -2.70749
    D5        0.52360   0.00126   0.00000   0.00797   0.00793   0.53153
    D6        2.61799  -0.00113   0.00000  -0.01233  -0.01234   2.60565
    D7       -1.57080  -0.00015   0.00000   0.00527   0.00523  -1.56557
    D8       -2.61799   0.00177   0.00000   0.02454   0.02456  -2.59343
    D9       -0.52360  -0.00063   0.00000   0.00424   0.00429  -0.51931
   D10        1.57080   0.00036   0.00000   0.02184   0.02186   1.59266
   D11        1.04720   0.00262   0.00000   0.04432   0.04613   1.09333
   D12        3.14159   0.00382   0.00000   0.05622   0.05786  -3.08374
   D13       -1.04720   0.00144   0.00000   0.03274   0.03449  -1.01271
   D14       -1.04720  -0.00300   0.00000  -0.05522  -0.05687  -1.10407
   D15        1.04720  -0.00179   0.00000  -0.04332  -0.04515   1.00205
   D16        3.14159  -0.00417   0.00000  -0.06680  -0.06852   3.07308
   D17        2.98716  -0.00115   0.00000  -0.00470  -0.00475   2.98241
   D18       -1.20163  -0.00140   0.00000  -0.00770  -0.00782  -1.20945
   D19        0.89276  -0.00059   0.00000   0.00206   0.00211   0.89487
   D20        0.89276   0.00165   0.00000   0.02540   0.02545   0.91821
   D21        2.98716   0.00140   0.00000   0.02240   0.02238   3.00954
   D22       -1.20163   0.00221   0.00000   0.03216   0.03231  -1.16932
   D23       -1.20164   0.00022   0.00000   0.01163   0.01160  -1.19004
   D24        0.89276  -0.00003   0.00000   0.00863   0.00852   0.90128
   D25        2.98716   0.00078   0.00000   0.01839   0.01845   3.00561
         Item               Value     Threshold  Converged?
 Maximum Force            0.062238     0.000450     NO 
 RMS     Force            0.012955     0.000300     NO 
 Maximum Displacement     0.239882     0.001800     NO 
 RMS     Displacement     0.089395     0.001200     NO 
 Predicted change in Energy=-1.455547D-02
 Lowest energy point so far.  Saving SCF results.
 GradGradGradGradGradGradGradGradGradGradGradGradGradGradGradGradGradGrad

 Leave Link  103 at Thu Aug 29 08:24:26 2024, MaxMem=  8589934592 cpu:               0.3 elap:               0.0
 (Enter /share/apps/g16.b01_avx2/g16/l202.exe)
                          Input orientation:                          
 ---------------------------------------------------------------------
 Center     Atomic      Atomic             Coordinates (Angstroms)
 Number     Number       Type             X           Y           Z
 ---------------------------------------------------------------------
      1          6           0        0.606839    0.774424    0.120218
      2          8           0        0.001358   -0.282697    0.089293
      3          7           0        1.974240    0.818048    0.390843
      4          1           0        2.372774    1.644044   -0.040745
      5          6           0       -0.075875    2.091473   -0.106950
      6          6           0        2.723183   -0.402730    0.053070
      7          1           0        2.692042   -0.619081   -1.016235
      8          1           0        3.758288   -0.269132    0.362235
      9          1           0        2.298672   -1.242838    0.593694
     10          1           0       -1.099293    1.993855    0.247535
     11          1           0        0.429483    2.874168    0.460815
     12          6           0       -0.054960    2.432392   -1.605862
     13          1           0       -0.686445    3.299965   -1.789347
     14          1           0        0.956824    2.662350   -1.938736
     15          1           0       -0.433573    1.594601   -2.190536
 ---------------------------------------------------------------------
                    Distance matrix (angstroms):
                    1          2          3          4          5
     1  C    0.000000
     2  O    1.218633   0.000000
     3  N    1.394606   2.279218   0.000000
     4  H    1.975012   3.058243   1.013591   0.000000
     5  C    1.500774   2.383518   2.464220   2.490071   0.000000
     6  C    2.422625   2.724711   1.471498   2.078670   3.752517
     7  H    2.753444   2.928332   2.135521   2.485005   3.979355
     8  H    3.328545   3.766856   2.089403   2.396306   4.526963
     9  H    2.675037   2.540461   2.096105   2.956703   4.152952
    10  H    2.100978   2.533607   3.293882   3.501531   1.087462
    11  H    2.134570   3.207354   2.572703   2.353964   1.091034
    12  C    2.483181   3.201317   3.272703   2.994157   1.537335
    13  H    3.420144   4.103393   4.241743   3.893393   2.159562
    14  H    2.815323   3.701232   3.140624   2.577640   2.178946
    15  H    2.663594   2.985135   3.614431   3.535482   2.171672
                    6          7          8          9         10
     6  C    0.000000
     7  H    1.091417   0.000000
     8  H    1.088519   1.777505   0.000000
     9  H    1.085479   1.770787   1.769789   0.000000
    10  H    4.515834   4.774806   5.360070   4.705547   0.000000
    11  H    4.020619   4.416293   4.579410   4.523413   1.776962
    12  C    4.302098   4.147911   5.070749   4.887223   2.172101
    13  H    5.360039   5.231711   6.092898   5.935223   2.454640
    14  H    4.059807   3.824889   4.662215   4.843991   3.074781
    15  H    4.357546   4.006100   5.249937   4.823708   2.558667
                   11         12         13         14         15
    11  H    0.000000
    12  C    2.168180   0.000000
    13  H    2.547515   1.088634   0.000000
    14  H    2.465928   1.089675   1.768955   0.000000
    15  H    3.067869   1.089535   1.770075   1.771072   0.000000
 Stoichiometry    C4H9NO
 Framework group  C1[X(C4H9NO)]
 Deg. of freedom    39
 Full point group                 C1      NOp   1
 RotChk:  IX=0 Diff= 1.65D-02
 Largest Abelian subgroup         C1      NOp   1
 Largest concise Abelian subgroup C1      NOp   1
                         Standard orientation:                         
 ---------------------------------------------------------------------
 Center     Atomic      Atomic             Coordinates (Angstroms)
 Number     Number       Type             X           Y           Z
 ---------------------------------------------------------------------
      1          6           0        0.022012    0.424320   -0.235399
      2          8           0        0.319368    1.486772    0.282135
      3          7           0        0.991400   -0.534004   -0.530065
      4          1           0        0.563327   -1.452753   -0.525655
      5          6           0       -1.392084    0.086750   -0.607826
      6          6           0        2.203938   -0.480981    0.301948
      7          1           0        1.986164   -0.668755    1.354805
      8          1           0        2.903510   -1.232553   -0.059456
      9          1           0        2.659106    0.499886    0.207149
     10          1           0       -1.895472    1.018326   -0.855497
     11          1           0       -1.399648   -0.570087   -1.478953
     12          6           0       -2.087625   -0.603185    0.576916
     13          1           0       -3.151202   -0.700898    0.366251
     14          1           0       -1.674097   -1.597049    0.746092
     15          1           0       -1.963878   -0.013692    1.484810
 ---------------------------------------------------------------------
 Rotational constants (GHZ):           6.2629146           2.3530536           2.0312941
 Leave Link  202 at Thu Aug 29 08:24:26 2024, MaxMem=  8589934592 cpu:               0.1 elap:               0.0
 (Enter /share/apps/g16.b01_avx2/g16/l301.exe)
 Standard basis: def2TZVP (5D, 7F)
 Ernie: Thresh=  0.10000D-02 Tol=  0.10000D-05 Strict=F.
 There are   270 symmetry adapted cartesian basis functions of A   symmetry.
 There are   240 symmetry adapted basis functions of A   symmetry.
   240 basis functions,   378 primitive gaussians,   270 cartesian basis functions
    24 alpha electrons       24 beta electrons
       nuclear repulsion energy       245.4787817985 Hartrees.
 IExCor= 1009 DFT=T Ex+Corr=PBE1PBE ExCW=0 ScaHFX=  0.250000
 ScaDFX=  0.750000  0.750000  1.000000  1.000000 ScalE2=  1.000000  1.000000
 IRadAn=  99590 IRanWt=     -1 IRanGd=            0 ICorTp=0 IEmpDi=131
 NAtoms=   15 NActive=   15 NUniq=   15 SFac= 1.00D+00 NAtFMM=   60 NAOKFM=F Big=F
 Integral buffers will be    131072 words long.
 Raffenetti 2 integral format.
 Two-electron integral symmetry is turned on.
 R6Disp:  Grimme-D3 Dispersion energy=       -0.0055971701 Hartrees.
 Nuclear repulsion after empirical dispersion term =      245.4731846283 Hartrees.
 ------------------------------------------------------------------------------
 Polarizable Continuum Model (PCM)
 =================================
 Model                : PCM.
 Atomic radii         : UFF (Universal Force Field).
 Polarization charges : Total charges.
 Charge compensation  : None.
 Solution method      : On-the-fly selection.
 Cavity type          : Scaled VdW (van der Waals Surface) (Alpha=1.100).
 Cavity algorithm     : GePol (No added spheres)
                        Default sphere list used, NSphG=   15.
                        Lebedev-Laikov grids with approx.  5.0 points / Ang**2.
                        Smoothing algorithm: York/Karplus (Gamma=1.0000).
                        Polarization charges: spherical gaussians, with
                                              point-specific exponents (IZeta= 3).
                        Self-potential: point-specific (ISelfS= 7).
                        Self-field    : sphere-specific E.n sum rule (ISelfD= 2).
 1st derivatives      : Analytical E(r).r(x)/FMM algorithm (CHGder, D1EAlg=3).
                        Cavity 1st derivative terms included.
 Solvent              : Water, Eps=  78.355300 Eps(inf)=   1.777849
 ------------------------------------------------------------------------------
 Spheres list:
 ISph  on   Nord     Re0    Alpha      Xe            Ye            Ze
    1   C      1    1.9255  1.100      0.022012      0.424320     -0.235399
    2   O      2    1.7500  1.100      0.319368      1.486772      0.282135
    3   N      3    1.8300  1.100      0.991400     -0.534004     -0.530065
    4   H      4    1.4430  1.100      0.563327     -1.452753     -0.525655
    5   C      5    1.9255  1.100     -1.392084      0.086750     -0.607826
    6   C      6    1.9255  1.100      2.203938     -0.480981      0.301948
    7   H      7    1.4430  1.100      1.986164     -0.668755      1.354805
    8   H      8    1.4430  1.100      2.903510     -1.232553     -0.059456
    9   H      9    1.4430  1.100      2.659106      0.499886      0.207149
   10   H     10    1.4430  1.100     -1.895472      1.018326     -0.855497
   11   H     11    1.4430  1.100     -1.399648     -0.570087     -1.478953
   12   C     12    1.9255  1.100     -2.087625     -0.603185      0.576916
   13   H     13    1.4430  1.100     -3.151202     -0.700898      0.366251
   14   H     14    1.4430  1.100     -1.674097     -1.597049      0.746092
   15   H     15    1.4430  1.100     -1.963878     -0.013692      1.484810
 ------------------------------------------------------------------------------
 GePol: Number of generator spheres                  =      15
 GePol: Total number of spheres                      =      15
 GePol: Number of exposed spheres                    =      15 (100.00%)
 GePol: Number of points                             =    1209
 GePol: Average weight of points                     =       0.14
 GePol: Minimum weight of points                     =   0.10D-09
 GePol: Maximum weight of points                     =    0.20577
 GePol: Number of points with low weight             =      73
 GePol: Fraction of low-weight points (<1% of avg)   =       6.04%
 GePol: Cavity surface area                          =    163.866 Ang**2
 GePol: Cavity volume                                =    151.513 Ang**3
 Leave Link  301 at Thu Aug 29 08:24:27 2024, MaxMem=  8589934592 cpu:               0.7 elap:               0.0
 (Enter /share/apps/g16.b01_avx2/g16/l302.exe)
 NPDir=0 NMtPBC=     1 NCelOv=     1 NCel=       1 NClECP=     1 NCelD=      1
         NCelK=      1 NCelE2=     1 NClLst=     1 CellRange=     0.0.
 One-electron integrals computed using PRISM.
 One-electron integral symmetry used in STVInt
   1 Symmetry operations used in ECPInt.
 ECPInt:  NShTT=    5253 NPrTT=   15384 LenC2=    5190 LenP2D=   12552.
 LDataN:  DoStor=T MaxTD1= 6 Len=  172
 NBasis=   240 RedAO= T EigKep=  2.45D-04  NBF=   240
 NBsUse=   240 1.00D-06 EigRej= -1.00D+00 NBFU=   240
 Precomputing XC quadrature grid using
 IXCGrd= 4 IRadAn=       99590 IRanWt=          -1 IRanGd=           0 AccXCQ= 0.00D+00.
 Generated NRdTot=       0 NPtTot=           0 NUsed=           0 NTot=          32
 NSgBfM=   269   269   269   269   269 MxSgAt=    15 MxSgA2=    15.
 Leave Link  302 at Thu Aug 29 08:24:27 2024, MaxMem=  8589934592 cpu:               3.2 elap:               0.1
 (Enter /share/apps/g16.b01_avx2/g16/l303.exe)
 DipDrv:  MaxL=1.
 Leave Link  303 at Thu Aug 29 08:24:27 2024, MaxMem=  8589934592 cpu:               0.6 elap:               0.0
 (Enter /share/apps/g16.b01_avx2/g16/l401.exe)
 Initial guess from the checkpoint file:  "/scratch/Gau-429851.chk"
 B after Tr=    -0.000000   -0.000000    0.000000
         Rot=    0.999996   -0.002103   -0.001728    0.000401 Ang=  -0.32 deg.
 Guess basis will be translated and rotated to current coordinates.
 JPrj=2 DoOrth=T DoCkMO=T.
 Generating alternative initial guess.
 ExpMin= 9.52D-02 ExpMax= 2.70D+04 ExpMxC= 9.22D+02 IAcc=4 IRadAn=    199590 AccDes= 0.00D+00
 Harris functional with IExCor= 1009 and IRadAn=  199590 diagonalized for initial guess.
 HarFok:  IExCor= 1009 AccDes= 0.00D+00 IRadAn=    199590 IDoV= 1 UseB2=F ITyADJ=14
 ICtDFT=  3500011 ScaDFX=  1.000000  1.000000  1.000000  1.000000
 FoFCou: FMM=F IPFlag=           0 FMFlag=      100000 FMFlg1=           0
         NFxFlg=           0 DoJE=T BraDBF=F KetDBF=T FulRan=T
         wScrn=  0.000000 ICntrl=       500 IOpCl=  0 I1Cent=   200000004 NGrid=           0
         NMat0=    1 NMatS0=      1 NMatT0=    0 NMatD0=    1 NMtDS0=    0 NMtDT0=    0
 Petite list used in FoFCou.
 Harris En= -287.733250768394    
 Leave Link  401 at Thu Aug 29 08:24:27 2024, MaxMem=  8589934592 cpu:              17.9 elap:               0.7
 (Enter /share/apps/g16.b01_avx2/g16/l502.exe)
 Integral symmetry usage will be decided dynamically.
 Closed shell SCF:
 Using DIIS extrapolation, IDIIS=  1040.
 NGot=  8589934592 LenX=  8589779719 LenY=  8589706378
 Requested convergence on RMS density matrix=1.00D-08 within 128 cycles.
 Requested convergence on MAX density matrix=1.00D-06.
 Requested convergence on             energy=1.00D-06.
 No special actions if energy rises.
 Fock matrices will be formed incrementally for  20 cycles.

 Cycle   1  Pass 1  IDiag  1:
 FoFJK:  IHMeth= 1 ICntrl=       0 DoSepK=F KAlg= 0 I1Cent=           0 FoldK=F
 IRaf= 970000000 NMat=       1 IRICut=       1 DoRegI=T DoRafI=F ISym2E= 0 IDoP0=0 IntGTp=1.
 FoFCou: FMM=F IPFlag=           0 FMFlag=      100000 FMFlg1=           0
         NFxFlg=           0 DoJE=F BraDBF=F KetDBF=F FulRan=T
         wScrn=  0.000000 ICntrl=         0 IOpCl=  0 I1Cent=           0 NGrid=           0
         NMat0=    1 NMatS0=      1 NMatT0=    0 NMatD0=    1 NMtDS0=    0 NMtDT0=    0
 Symmetry not used in FoFCou.
 Inv3:  Mode=1 IEnd=     4385043.
 Iteration    1 A*A^-1 deviation from unit magnitude is 3.33D-15 for    761.
 Iteration    1 A*A^-1 deviation from orthogonality  is 1.78D-15 for    947     74.
 Iteration    1 A^-1*A deviation from unit magnitude is 3.77D-15 for     37.
 Iteration    1 A^-1*A deviation from orthogonality  is 1.67D-15 for    930    232.
 E= -287.608177494743    
 DIIS: error= 5.87D-03 at cycle   1 NSaved=   1.
 NSaved= 1 IEnMin= 1 EnMin= -287.608177494743     IErMin= 1 ErrMin= 5.87D-03
 ErrMax= 5.87D-03  0.00D+00 EMaxC= 1.00D-01 BMatC= 1.05D-02 BMatP= 1.05D-02
 IDIUse=3 WtCom= 9.41D-01 WtEn= 5.87D-02
 Coeff-Com:  0.100D+01
 Coeff-En:   0.100D+01
 Coeff:      0.100D+01
 Gap=     0.627 Goal=   None    Shift=    0.000
 GapD=    0.627 DampG=2.000 DampE=1.000 DampFc=2.0000 IDamp=-1.
 RMSDP=4.77D-04 MaxDP=9.84D-03              OVMax= 3.46D-02

 Cycle   2  Pass 1  IDiag  1:
 RMSU=  4.77D-04    CP:  9.99D-01
 E= -287.620791503518     Delta-E=       -0.012614008775 Rises=F Damp=F
 DIIS: error= 1.15D-03 at cycle   2 NSaved=   2.
 NSaved= 2 IEnMin= 2 EnMin= -287.620791503518     IErMin= 2 ErrMin= 1.15D-03
 ErrMax= 1.15D-03  0.00D+00 EMaxC= 1.00D-01 BMatC= 7.58D-04 BMatP= 1.05D-02
 IDIUse=3 WtCom= 9.89D-01 WtEn= 1.15D-02
 Coeff-Com:  0.645D-01 0.936D+00
 Coeff-En:   0.000D+00 0.100D+01
 Coeff:      0.638D-01 0.936D+00
 Gap=     0.281 Goal=   None    Shift=    0.000
 RMSDP=2.02D-04 MaxDP=7.77D-03 DE=-1.26D-02 OVMax= 1.06D-02

 Cycle   3  Pass 1  IDiag  1:
 RMSU=  1.94D-04    CP:  1.00D+00  1.11D+00
 E= -287.620892054587     Delta-E=       -0.000100551069 Rises=F Damp=F
 DIIS: error= 1.11D-03 at cycle   3 NSaved=   3.
 NSaved= 3 IEnMin= 3 EnMin= -287.620892054587     IErMin= 3 ErrMin= 1.11D-03
 ErrMax= 1.11D-03  0.00D+00 EMaxC= 1.00D-01 BMatC= 6.94D-04 BMatP= 7.58D-04
 IDIUse=3 WtCom= 9.89D-01 WtEn= 1.11D-02
 Coeff-Com: -0.326D-01 0.497D+00 0.535D+00
 Coeff-En:   0.000D+00 0.460D+00 0.540D+00
 Coeff:     -0.322D-01 0.497D+00 0.535D+00
 Gap=     0.281 Goal=   None    Shift=    0.000
 RMSDP=1.11D-04 MaxDP=4.11D-03 DE=-1.01D-04 OVMax= 6.84D-03

 Cycle   4  Pass 1  IDiag  1:
 RMSU=  3.44D-05    CP:  9.99D-01  1.10D+00  4.63D-01
 E= -287.621503471564     Delta-E=       -0.000611416977 Rises=F Damp=F
 DIIS: error= 1.93D-04 at cycle   4 NSaved=   4.
 NSaved= 4 IEnMin= 4 EnMin= -287.621503471564     IErMin= 4 ErrMin= 1.93D-04
 ErrMax= 1.93D-04  0.00D+00 EMaxC= 1.00D-01 BMatC= 1.99D-05 BMatP= 6.94D-04
 IDIUse=3 WtCom= 9.98D-01 WtEn= 1.93D-03
 Coeff-Com: -0.169D-01 0.206D+00 0.259D+00 0.552D+00
 Coeff-En:   0.000D+00 0.000D+00 0.000D+00 0.100D+01
 Coeff:     -0.169D-01 0.205D+00 0.259D+00 0.553D+00
 Gap=     0.280 Goal=   None    Shift=    0.000
 RMSDP=1.92D-05 MaxDP=7.17D-04 DE=-6.11D-04 OVMax= 1.67D-03

 Cycle   5  Pass 1  IDiag  1:
 RMSU=  1.36D-05    CP:  9.99D-01  1.11D+00  5.15D-01  7.79D-01
 E= -287.621514095900     Delta-E=       -0.000010624336 Rises=F Damp=F
 DIIS: error= 1.10D-04 at cycle   5 NSaved=   5.
 NSaved= 5 IEnMin= 5 EnMin= -287.621514095900     IErMin= 5 ErrMin= 1.10D-04
 ErrMax= 1.10D-04  0.00D+00 EMaxC= 1.00D-01 BMatC= 5.86D-06 BMatP= 1.99D-05
 IDIUse=3 WtCom= 9.99D-01 WtEn= 1.10D-03
 Coeff-Com: -0.236D-02 0.117D-01 0.414D-01 0.367D+00 0.583D+00
 Coeff-En:   0.000D+00 0.000D+00 0.000D+00 0.250D+00 0.750D+00
 Coeff:     -0.236D-02 0.117D-01 0.413D-01 0.366D+00 0.583D+00
 Gap=     0.280 Goal=   None    Shift=    0.000
 RMSDP=6.30D-06 MaxDP=2.53D-04 DE=-1.06D-05 OVMax= 5.91D-04

 Cycle   6  Pass 1  IDiag  1:
 RMSU=  2.78D-06    CP:  9.99D-01  1.10D+00  5.10D-01  8.94D-01  7.13D-01
 E= -287.621518587942     Delta-E=       -0.000004492042 Rises=F Damp=F
 DIIS: error= 1.01D-05 at cycle   6 NSaved=   6.
 NSaved= 6 IEnMin= 6 EnMin= -287.621518587942     IErMin= 6 ErrMin= 1.01D-05
 ErrMax= 1.01D-05  0.00D+00 EMaxC= 1.00D-01 BMatC= 6.91D-08 BMatP= 5.86D-06
 IDIUse=1 WtCom= 1.00D+00 WtEn= 0.00D+00
 Coeff-Com:  0.121D-05-0.627D-02 0.189D-02 0.974D-01 0.198D+00 0.709D+00
 Coeff:      0.121D-05-0.627D-02 0.189D-02 0.974D-01 0.198D+00 0.709D+00
 Gap=     0.280 Goal=   None    Shift=    0.000
 RMSDP=1.25D-06 MaxDP=3.76D-05 DE=-4.49D-06 OVMax= 1.12D-04

 Cycle   7  Pass 1  IDiag  1:
 RMSU=  9.81D-07    CP:  9.99D-01  1.11D+00  5.13D-01  9.02D-01  7.25D-01
                    CP:  9.41D-01
 E= -287.621518641928     Delta-E=       -0.000000053986 Rises=F Damp=F
 DIIS: error= 6.59D-06 at cycle   7 NSaved=   7.
 NSaved= 7 IEnMin= 7 EnMin= -287.621518641928     IErMin= 7 ErrMin= 6.59D-06
 ErrMax= 6.59D-06  0.00D+00 EMaxC= 1.00D-01 BMatC= 1.50D-08 BMatP= 6.91D-08
 IDIUse=1 WtCom= 1.00D+00 WtEn= 0.00D+00
 Coeff-Com:  0.183D-03-0.428D-02-0.287D-02 0.128D-01 0.473D-01 0.361D+00
 Coeff-Com:  0.586D+00
 Coeff:      0.183D-03-0.428D-02-0.287D-02 0.128D-01 0.473D-01 0.361D+00
 Coeff:      0.586D+00
 Gap=     0.280 Goal=   None    Shift=    0.000
 RMSDP=4.93D-07 MaxDP=1.83D-05 DE=-5.40D-08 OVMax= 3.18D-05

 Cycle   8  Pass 1  IDiag  1:
 RMSU=  2.85D-07    CP:  9.99D-01  1.11D+00  5.13D-01  9.08D-01  7.41D-01
                    CP:  1.01D+00  8.17D-01
 E= -287.621518655187     Delta-E=       -0.000000013259 Rises=F Damp=F
 DIIS: error= 1.59D-06 at cycle   8 NSaved=   8.
 NSaved= 8 IEnMin= 8 EnMin= -287.621518655187     IErMin= 8 ErrMin= 1.59D-06
 ErrMax= 1.59D-06  0.00D+00 EMaxC= 1.00D-01 BMatC= 7.96D-10 BMatP= 1.50D-08
 IDIUse=1 WtCom= 1.00D+00 WtEn= 0.00D+00
 Coeff-Com:  0.636D-04-0.802D-03-0.111D-02-0.618D-02-0.261D-02 0.586D-01
 Coeff-Com:  0.204D+00 0.748D+00
 Coeff:      0.636D-04-0.802D-03-0.111D-02-0.618D-02-0.261D-02 0.586D-01
 Coeff:      0.204D+00 0.748D+00
 Gap=     0.280 Goal=   None    Shift=    0.000
 RMSDP=1.45D-07 MaxDP=3.93D-06 DE=-1.33D-08 OVMax= 2.14D-05

 Cycle   9  Pass 1  IDiag  1:
 RMSU=  9.75D-08    CP:  9.99D-01  1.11D+00  5.13D-01  9.09D-01  7.45D-01
                    CP:  1.03D+00  8.73D-01  9.86D-01
 E= -287.621518656009     Delta-E=       -0.000000000823 Rises=F Damp=F
 DIIS: error= 5.57D-07 at cycle   9 NSaved=   9.
 NSaved= 9 IEnMin= 9 EnMin= -287.621518656009     IErMin= 9 ErrMin= 5.57D-07
 ErrMax= 5.57D-07  0.00D+00 EMaxC= 1.00D-01 BMatC= 1.95D-10 BMatP= 7.96D-10
 IDIUse=1 WtCom= 1.00D+00 WtEn= 0.00D+00
 Coeff-Com:  0.133D-04 0.141D-03-0.220D-03-0.512D-02-0.796D-02-0.205D-01
 Coeff-Com:  0.163D-01 0.374D+00 0.643D+00
 Coeff:      0.133D-04 0.141D-03-0.220D-03-0.512D-02-0.796D-02-0.205D-01
 Coeff:      0.163D-01 0.374D+00 0.643D+00
 Gap=     0.280 Goal=   None    Shift=    0.000
 RMSDP=5.98D-08 MaxDP=1.45D-06 DE=-8.23D-10 OVMax= 5.90D-06

 Cycle  10  Pass 1  IDiag  1:
 RMSU=  3.13D-08    CP:  9.99D-01  1.11D+00  5.13D-01  9.09D-01  7.46D-01
                    CP:  1.04D+00  8.94D-01  1.08D+00  8.81D-01
 E= -287.621518656212     Delta-E=       -0.000000000203 Rises=F Damp=F
 DIIS: error= 1.08D-07 at cycle  10 NSaved=  10.
 NSaved=10 IEnMin=10 EnMin= -287.621518656212     IErMin=10 ErrMin= 1.08D-07
 ErrMax= 1.08D-07  0.00D+00 EMaxC= 1.00D-01 BMatC= 3.71D-12 BMatP= 1.95D-10
 IDIUse=1 WtCom= 1.00D+00 WtEn= 0.00D+00
 Coeff-Com: -0.341D-05 0.115D-03 0.715D-04-0.484D-03-0.143D-02-0.942D-02
 Coeff-Com: -0.143D-01 0.122D-01 0.122D+00 0.891D+00
 Coeff:     -0.341D-05 0.115D-03 0.715D-04-0.484D-03-0.143D-02-0.942D-02
 Coeff:     -0.143D-01 0.122D-01 0.122D+00 0.891D+00
 Gap=     0.280 Goal=   None    Shift=    0.000
 RMSDP=1.43D-08 MaxDP=3.79D-07 DE=-2.03D-10 OVMax= 2.27D-06

 Cycle  11  Pass 1  IDiag  1:
 RMSU=  7.24D-09    CP:  9.99D-01  1.11D+00  5.13D-01  9.09D-01  7.46D-01
                    CP:  1.04D+00  8.99D-01  1.11D+00  9.54D-01  1.08D+00
 E= -287.621518656219     Delta-E=       -0.000000000007 Rises=F Damp=F
 DIIS: error= 2.81D-08 at cycle  11 NSaved=  11.
 NSaved=11 IEnMin=11 EnMin= -287.621518656219     IErMin=11 ErrMin= 2.81D-08
 ErrMax= 2.81D-08  0.00D+00 EMaxC= 1.00D-01 BMatC= 3.58D-13 BMatP= 3.71D-12
 IDIUse=1 WtCom= 1.00D+00 WtEn= 0.00D+00
 Coeff-Com: -0.184D-05 0.282D-04 0.332D-04 0.980D-04-0.400D-04-0.187D-02
 Coeff-Com: -0.492D-02-0.146D-01 0.522D-02 0.278D+00 0.738D+00
 Coeff:     -0.184D-05 0.282D-04 0.332D-04 0.980D-04-0.400D-04-0.187D-02
 Coeff:     -0.492D-02-0.146D-01 0.522D-02 0.278D+00 0.738D+00
 Gap=     0.280 Goal=   None    Shift=    0.000
 RMSDP=2.93D-09 MaxDP=6.40D-08 DE=-6.54D-12 OVMax= 2.88D-07

 Error on total polarization charges =  0.01075
 SCF Done:  E(RPBE1PBE) =  -287.621518656     A.U. after   11 cycles
            NFock= 11  Conv=0.29D-08     -V/T= 2.0049
 KE= 2.862261192412D+02 PE=-1.162133203677D+03 EE= 3.428123811508D+02
 Leave Link  502 at Thu Aug 29 08:24:37 2024, MaxMem=  8589934592 cpu:             229.6 elap:               9.7
 (Enter /share/apps/g16.b01_avx2/g16/l701.exe)
 ... and contract with generalized density number  0.
 Compute integral first derivatives.
 R6Disp: Adding Grimme-D3 dispersion energy 1st derivatives to the gradient.
   1 Symmetry operations used in ECPInt.
 ECPInt:  NShTT=    5253 NPrTT=   15384 LenC2=    5190 LenP2D=   12552.
 LDataN:  DoStor=T MaxTD1= 7 Len=  274
 D1PCM: PCM CHGder 1st derivatives, ID1Alg=3 FixD1E=F DoIter=F DoCFld=F I1PDM=0.
 GePol: Maximum number of non-zero 1st derivatives   =     222
 Leave Link  701 at Thu Aug 29 08:24:38 2024, MaxMem=  8589934592 cpu:              11.2 elap:               0.5
 (Enter /share/apps/g16.b01_avx2/g16/l702.exe)
 L702 exits ... SP integral derivatives will be done elsewhere.
 Leave Link  702 at Thu Aug 29 08:24:38 2024, MaxMem=  8589934592 cpu:               0.3 elap:               0.0
 (Enter /share/apps/g16.b01_avx2/g16/l703.exe)
 Integral derivatives from FoFJK, PRISM(SPDF).
 Compute integral first derivatives, UseDBF=F ICtDFT=           0.
 Calling FoFJK, ICntrl=      2127 FMM=F ISym2X=0 I1Cent= 0 IOpClX= 0 NMat=1 NMatS=1 NMatT=0.
 FoFJK:  IHMeth= 1 ICntrl=    2127 DoSepK=F KAlg= 0 I1Cent=           0 FoldK=F
 IRaf=         0 NMat=       1 IRICut=       1 DoRegI=T DoRafI=F ISym2E= 0 IDoP0=0 IntGTp=1.
 FoFCou: FMM=F IPFlag=           0 FMFlag=      100000 FMFlg1=         800
         NFxFlg=           0 DoJE=F BraDBF=F KetDBF=F FulRan=T
         wScrn=  0.000000 ICntrl=      2127 IOpCl=  0 I1Cent=           0 NGrid=           0
[...]
 ! D21   D(10,5,12,14)         177.1701         -DE/DX =    0.0                 !
 ! D22   D(10,5,12,15)         -62.9066         -DE/DX =    0.0                 !
 ! D23   D(11,5,12,13)         -60.4933         -DE/DX =    0.0                 !
 ! D24   D(11,5,12,14)          59.4908         -DE/DX =    0.0                 !
 ! D25   D(11,5,12,15)         179.4141         -DE/DX =    0.0                 !
 --------------------------------------------------------------------------------
 GradGradGradGradGradGradGradGradGradGradGradGradGradGradGradGradGradGrad

 Leave Link  103 at Thu Aug 29 08:30:23 2024, MaxMem=  8589934592 cpu:               0.3 elap:               0.0
 (Enter /share/apps/g16.b01_avx2/g16/l9999.exe)

 ----------------------------------------------------------------------

 Electric dipole moment (input orientation):
 (Debye = 10**-18 statcoulomb cm , SI units = C m)
                  (au)            (Debye)         (10**-30 SI)
   Tot        0.203429D+01      0.517064D+01      0.172474D+02
   x          0.123533D+01      0.313989D+01      0.104736D+02
   y          0.125400D+01      0.318736D+01      0.106319D+02
   z          0.101968D+01      0.259178D+01      0.864524D+01

 Dipole polarizability, Alpha (input orientation).
 (esu units = cm**3 , SI units = C**2 m**2 J**-1)
 Alpha(0;0):
               (au)            (10**-24 esu)      (10**-40 SI)
   iso        0.750387D+02      0.111196D+02      0.123722D+02
   aniso      0.224895D+02      0.333261D+01      0.370802D+01
   xx         0.801639D+02      0.118791D+02      0.132172D+02
   yx        -0.566590D+01     -0.839599D+00     -0.934180D+00
   yy         0.768676D+02      0.113906D+02      0.126738D+02
   zx         0.986910D+01      0.146245D+01      0.162720D+01
   zy         0.325699D+00      0.482636D-01      0.537005D-01
   zz         0.680846D+02      0.100891D+02      0.112256D+02

 ----------------------------------------------------------------------

 Dipole orientation:
     6          1.22579474          1.13279390          1.55200239
     8          1.56844210          0.64164020         -0.68912735
     7          2.29613056         -0.23441307          3.40176315
     1          1.96479186          0.24603366          5.20859206
     6         -0.45831229          3.28388182          2.39142541
     6          3.87573754         -2.39357660          2.87951062
     1          5.50784575         -1.85402313          1.73674315
     1          4.53904181         -3.17839144          4.66115517
     1          2.82918550         -3.84927542          1.85513580
     1         -2.40676980          2.65172321          2.09271864
     1         -0.24843236          3.62615391          4.41713308
     6          0.02683783          5.68626800          0.89474888
     1         -1.31614797          7.15757702          1.42829522
     1          1.93224333          6.40305637          1.23960259
     1         -0.16588997          5.32981039         -1.12623506

 Electric dipole moment (dipole orientation):
 (Debye = 10**-18 statcoulomb cm , SI units = C m)
                  (au)            (Debye)         (10**-30 SI)
   Tot        0.203429D+01      0.517064D+01      0.172474D+02
   x          0.000000D+00      0.000000D+00      0.000000D+00
   y          0.000000D+00      0.000000D+00      0.000000D+00
   z          0.203429D+01      0.517064D+01      0.172474D+02

 Dipole polarizability, Alpha (dipole orientation).
 (esu units = cm**3 , SI units = C**2 m**2 J**-1)
 Alpha(0;0):
               (au)            (10**-24 esu)      (10**-40 SI)
   iso        0.750387D+02      0.111196D+02      0.123722D+02
   aniso      0.224895D+02      0.333261D+01      0.370802D+01
   xx         0.686928D+02      0.101792D+02      0.113259D+02
   yx        -0.106449D+02     -0.157742D+01     -0.175511D+01
   yy         0.785794D+02      0.116443D+02      0.129560D+02
   zx         0.233640D+01      0.346219D+00      0.385220D+00
   zy        -0.441382D+01     -0.654061D+00     -0.727741D+00
   zz         0.778438D+02      0.115353D+02      0.128347D+02

 ----------------------------------------------------------------------
 1\1\GINC-RIPPER-24-04\Freq\RPBE1PBE\def2TZVP\C4H9N1O1\HILLEL\29-Aug-20
 24\0\\#P Geom=AllCheck Guess=TCheck SCRF=Check GenChk RPBE1PBE/def2TZV
 P Freq\\pfp-betaC_ester methyalacetamid_prod\\0,1\C,0.8385866043,0.792
 243736,-0.351755956\O,0.3199999458,-0.1781518669,-0.8961071312\N,2.040
 6707318,0.7140453736,0.240932096\H,2.4256239943,1.537046829,0.66994378
 93\C,0.1522133123,2.1384644204,-0.2896108045\C,2.7883150979,-0.5181164
 375,0.2991311886\H,3.0014252679,-0.8929958454,-0.7044616296\H,3.729180
 1479,-0.3346461812,0.8145710488\H,2.233438538,-1.2895202529,0.83857393
 16\H,-0.6381730894,2.0482719263,0.4634968905\H,0.841785036,2.906840298
 6,0.0686133485\C,-0.4520602028,2.5357328382,-1.6261699329\H,-1.0108561
 234,3.4684935765,-1.5330302459\H,0.3248024212,2.6801077926,-2.38080909
 5\H,-1.1313952018,1.7610280526,-1.9840255182\\Version=ES64L-G16RevB.01
 \State=1-A\HF=-287.6290368\RMSD=4.304e-09\RMSF=7.339e-06\ZeroPoint=0.1
 309571\Thermal=0.1386927\Dipole=1.2353289,1.2540032,1.0196838\DipoleDe
 riv=1.8642601,-0.0809906,0.7851738,0.2161289,1.3297073,0.4047655,0.824
 913,0.3103627,0.7624011,-1.0436698,-0.0829398,-0.3009302,-0.4763026,-1
 .2417606,-0.4263822,-0.3867562,-0.2336917,-0.7972385,-1.3343428,0.1223
 699,-0.4223028,0.1416376,-0.5896158,0.0708011,-0.3831952,0.0294145,-0.
 6719591,0.2327674,0.064847,-0.0369254,0.076754,0.1664669,-0.0102665,-0
 .0438955,-0.0159715,0.3205225,-0.0153556,0.253208,-0.0087382,0.1600196
 ,-0.1448464,-0.0207104,-0.0047236,-0.0423156,0.0829788,0.3563498,-0.15
 28434,-0.0112183,-0.2141654,0.5143093,-0.067154,-0.0304581,-0.029516,0
 .2746814,0.0430736,0.0464477,-0.0018953,0.1026627,-0.0019405,0.0012161
 ,0.0847228,-0.0887073,-0.1073322,-0.0692692,0.0165114,-0.0913693,-0.03
 99357,0.0426481,-0.0366554,-0.1029381,-0.009317,0.0644284,-0.014303,-0
 .0813183,0.0811795,0.0490228,-0.0861126,0.0987661,0.0442115,0.0922086,
 0.022784,-0.0204251,0.0101557,0.0991124,0.0048658,0.035154,0.0515876,0
 .0739613,0.0344071,-0.0427006,-0.0516064,-0.1103852,-0.1107345,-0.0573
 522,-0.0490137,-0.0487826,-0.0851452,-0.0285078,0.0181384,0.0975499,-0
 .027269,-0.0320804,0.0351728,0.045489,-0.000423,0.0015369,-0.0559017,0
 .0879896,0.0142559,0.1357597,-0.0174947,0.1359572,-0.1083309,0.0152078
 ,-0.0096465,-0.0011892,0.0445796,-0.0586877,-0.0274845,0.134539,-0.004
 5923,0.0865006,0.0339854,0.0710123,0.0540025,-0.0824234,-0.0005971,-0.
 0860685,-0.0663155,-0.1298732,0.0013451,-0.0659555,-0.0535994,-0.01527
 76,0.0231501\Polar=80.163866,-5.6658968,76.8675722,9.8691035,0.3256992
 ,68.084644\Quadrupole=1.8808671,-1.3795994,-0.5012677,-2.6529053,1.005
 0373,-0.9863252\PG=C01 [X(C4H9N1O1)]\NImag=0\\0.62800520,0.05115240,0.
 76814324,0.21926688,0.18009704,0.40176859,-0.18009025,-0.16612077,-0.0
 9857032,0.21168804,-0.15234536,-0.44445368,-0.18188984,0.21259785,0.49
 204387,-0.09545265,-0.18998879,-0.18457051,0.15211210,0.23970633,0.184
 13885,-0.29234844,0.05488238,-0.10592085,-0.05017920,-0.05096553,-0.05
 069561,0.61936591,0.03690396,-0.13693452,-0.00347674,-0.05422156,-0.00
 324158,-0.03489377,-0.00156452,0.74406112,-0.11223139,0.00659465,-0.11
 282497,-0.05193988,-0.03300499,-0.01422450,0.28535305,0.18520286,0.266
 59931,-0.00679964,-0.03116042,-0.00805488,-0.00500319,0.00208476,-0.00
 638565,-0.11294335,-0.11576308,-0.09109742,0.11935671,-0.00271672,0.00
 324102,0.00203008,0.00429023,0.00451172,0.00107139,-0.11828430,-0.3307
 7304,-0.15306927,0.12302997,0.34015855,0.00018307,-0.01244179,-0.01180
 667,-0.00582438,-0.00018423,0.00552423,-0.09217936,-0.15218197,-0.0892
 2929,0.09195312,0.15570507,0.09890833,-0.11127490,0.03731900,-0.000530
 77,0.01747707,-0.01401274,-0.00542689,-0.02087343,0.03314504,-0.005601
 94,-0.00110822,0.00148638,0.00120420,0.55422132,0.04946083,-0.15917882
 ,0.00209129,0.00392720,-0.04379581,-0.01671230,0.01147465,-0.00329483,
 0.00076086,-0.00106033,0.00058689,-0.00013253,0.05973522,0.52000346,0.
 00228444,-0.00369750,-0.08514150,0.00047915,-0.02359989,0.00727353,-0.
 01322594,0.01356937,0.00979453,0.00128233,0.00170516,-0.00216601,-0.00
 340442,0.02524353,0.50571076,-0.02877714,0.03025009,-0.00686591,0.0046
 7979,0.00464377,0.00648338,-0.12737487,0.06685746,-0.01777249,0.007318
 35,-0.01035403,0.00392732,-0.00016554,-0.00180773,-0.00545028,0.576822
 75,0.01996813,-0.00004743,0.01052017,-0.00813101,-0.00365688,-0.003853
 37,0.05827605,-0.21220032,-0.01112405,0.01571241,-0.01434720,0.0059236
 3,-0.00171312,0.00200298,-0.00257420,0.04178728,0.52442296,-0.00881561
 ,0.01524656,0.00054782,0.00292949,0.00253718,-0.00317676,-0.02095308,-
 0.00627253,-0.07128071,0.01126665,-0.00810750,-0.00195186,-0.00454478,
 -0.00212357,0.00563837,0.01839963,0.01170382,0.57540224,0.00353583,0.0
 0301135,0.00313342,-0.00015129,-0.00278015,-0.00076773,-0.00705108,0.0
 1234190,0.01390322,-0.00173461,0.00033934,0.00087927,0.00023194,0.0001
 6053,-0.00102521,-0.05539056,0.01376564,0.04248664,0.05617612,-0.00529
 878,-0.00117916,-0.00318395,0.00154724,0.00195124,0.00135311,0.0119062
 8,-0.02159906,-0.02612248,0.00369743,-0.00137617,-0.00146205,-0.000133
 63,-0.00030945,0.00105167,0.01405905,-0.07122628,-0.07400346,-0.022833
 34,0.08777773,-0.00258776,-0.00058721,-0.00006224,0.00047701,0.0010960
 9,0.00033493,0.00097985,-0.00317233,0.01001867,0.00058803,0.00106928,-
 0.00043353,0.00042946,0.00012806,-0.00054859,0.04519436,-0.07854434,-0
 .27988587,-0.05022282,0.08725438,0.29672005,0.00130454,0.00296608,0.00
 151803,-0.00008948,0.00001332,-0.00022543,-0.01792284,-0.00267653,-0.0
 0880270,0.00080735,-0.00016064,0.00005466,-0.00049821,-0.00022065,-0.0
 0056609,-0.25264822,-0.04035268,-0.11267811,0.00734819,0.00071779,0.00
 336540,0.27406653,-0.00036989,-0.00678621,-0.00215636,-0.00099143,0.00
 217815,-0.00002835,0.03551955,0.00066014,0.01844079,0.00006540,0.00164
 588,0.00032374,0.00099939,0.00034752,0.00060664,-0.05165408,-0.0589039
 7,-0.02876628,-0.00861521,-0.00185880,-0.00275135,0.04175523,0.0657466
 6,0.00045012,-0.00033870,0.00013320,-0.00056442,0.00054991,0.00027912,
 0.00116058,-0.00084403,-0.00149920,0.00011892,0.00018313,0.00091435,-0
 .00016626,-0.00011328,0.00026239,-0.11555394,-0.02302299,-0.11037108,-
 0.02535005,-0.00475445,-0.01143048,0.12508683,0.02622963,0.11299242,0.
 00263089,0.00229573,0.00020379,0.00005186,-0.00129706,-0.00006415,0.01
 050590,0.01809660,-0.01214362,-0.00060265,0.00147625,-0.00073669,-0.00
 072888,-0.00037836,0.00133992,-0.12447983,-0.09924374,0.07229095,-0.00
 287652,-0.00372161,0.00173008,-0.01217543,-0.01693813,0.01483149,0.127
 80009,-0.00652949,-0.00169557,-0.00403974,0.00173178,0.00276248,0.0017
 3994,-0.00404582,-0.03187344,0.01237785,0.00110083,-0.00214028,0.00338
 628,0.00072963,-0.00002807,-0.00080802,-0.09494938,-0.16694777,0.08884
 833,0.00456941,0.00780784,-0.00451957,-0.00243498,-0.00258542,0.002039
 91,0.09963643,0.19469884,0.00171793,0.00191521,0.00168790,0.00054497,-
 0.00180507,-0.00019863,-0.00499781,0.00076408,0.00259378,0.00028677,-0
 .00054388,-0.00060795,-0.00019175,-0.00006408,0.00001921,0.07088760,0.
 09082649,-0.11432791,0.01694503,0.01993527,-0.01471539,-0.00778431,-0.
 01186739,0.00869633,-0.07738215,-0.09922736,0.11690870,-0.01462177,-0.
 00166492,0.01035786,0.00130979,-0.00043769,-0.00153702,-0.00037486,0.0
 0258793,-0.00066878,0.00001622,-0.00008836,0.00080855,-0.18484671,-0.0
 1674390,0.13311857,0.00040667,0.00034947,-0.00112379,0.00004783,-0.000
 08154,0.00008658,-0.00007306,0.00012343,-0.00005408,-0.00030741,0.0002
 5294,-0.00003495,0.20049038,0.02351129,0.00294524,-0.02247814,-0.00206
 425,-0.00095652,0.00285901,0.00026243,-0.00210286,0.00131930,0.0003038
 1,-0.00021859,-0.00017830,-0.01450991,-0.04790435,0.01056026,-0.000215
 92,-0.00026220,0.00123691,-0.00008957,0.00009198,-0.00007280,0.0000747
 9,-0.00015910,0.00010688,0.00028693,-0.00016950,0.00007113,0.01451902,
 0.05032858,0.00153165,0.00005744,-0.00201675,-0.00053107,-0.00065718,0
 .00096384,-0.00059805,0.00003922,-0.00024899,-0.00012754,-0.00005210,0
 .00026462,0.13012704,0.01307260,-0.16168001,0.00031225,0.00008734,-0.0
 0032716,0.00000184,-0.00002170,0.00000168,0.00000003,-0.00001787,-0.00
 000563,-0.00002592,0.00012349,-0.00003719,-0.14080026,-0.01700774,0.18
 093324,0.00971067,0.01064568,0.00518065,-0.00047646,0.00451400,0.00094
 401,-0.00059372,0.00072244,0.00007853,-0.00021720,0.00111452,-0.000169
 94,-0.15466132,-0.11988864,-0.05397539,0.00057781,-0.00014866,0.000085
 49,0.00003484,-0.00004393,0.00002298,0.00002962,-0.00007300,0.00001209
 ,0.00003287,0.00001777,0.00000213,-0.01423839,-0.01639576,-0.00774176,
 0.16753404,-0.02531540,-0.01534994,-0.00922206,0.00445391,-0.00806157,
 -0.00167277,0.00042785,0.00168464,0.00009449,0.00188867,-0.00101514,0.
 00095419,-0.11515930,-0.18030195,-0.05782648,0.00016806,0.00035870,-0.
 00003177,-0.00006239,0.00009339,0.00004447,0.00001149,0.00002845,0.000
 00767,-0.00009906,0.00013381,-0.00002319,-0.00060944,-0.00145114,-0.00
 010186,0.12598410,0.19529380,-0.00072848,-0.00177675,-0.00395413,-0.00
 017436,-0.00081218,0.00204867,-0.00079705,0.00109559,-0.00023636,-0.00
 024000,0.00050812,0.00053206,-0.05273110,-0.05830975,-0.07215839,0.000
 33568,-0.00002484,-0.00016071,0.00001111,-0.00002790,0.00003281,-0.000
 00815,-0.00000729,0.00000957,-0.00003352,0.00008158,-0.00000619,0.0127
 7798,0.01553796,0.00694000,0.06195131,0.06280494,0.07968304,-0.0118115
 2,0.01154613,-0.01562505,-0.00096817,-0.00254244,-0.00137478,0.0000188
 3,0.00291167,0.00053517,0.00067013,-0.00023961,-0.00009609,-0.09168512
 ,0.00993961,-0.04573735,-0.00076747,-0.00020596,0.00044785,-0.00010716
 ,0.00012439,-0.00004286,-0.00013077,0.00012693,0.00001194,0.00012734,-
 0.00007656,0.00002866,0.01068377,-0.00691284,0.02080662,-0.00877701,0.
 00747888,-0.01908606,0.55729636,0.01225500,-0.00945766,0.03056284,0.00
 136450,0.00108134,-0.00067533,0.00194194,-0.00367849,-0.00138937,0.000
 33975,-0.00047609,0.00030596,0.00975271,-0.08682249,0.02879801,0.00121
 361,0.00070061,-0.00024836,0.00016560,-0.00012496,0.00005582,0.0002800
 1,-0.00029200,-0.00004197,-0.00012520,0.00005865,0.00001405,0.00158979
 ,-0.00123788,0.00354009,-0.00870654,0.00781736,-0.02066868,0.00756939,
 0.57327353,-0.00457788,0.01172138,0.00250643,-0.00088933,-0.00408873,-
 0.00089455,0.00373729,-0.00237570,0.00021541,-0.00011564,-0.00051158,-
 0.00005483,-0.04396778,0.02465894,-0.17598203,0.00038690,0.00048771,-0
 .00012677,0.00011652,-0.00019001,-0.00004562,0.00017748,-0.00018180,0.
 00002881,0.00001537,-0.00012299,0.00002273,-0.01115805,0.00677747,-0.0
 2293848,-0.00416124,0.00384057,-0.01002383,-0.03295690,0.02185577,0.49
 643491,0.00052448,-0.00231784,-0.00308062,0.00045186,0.00050220,0.0007
 9248,-0.00057934,0.00080074,0.00004718,0.00009456,0.00011257,-0.000018
 53,-0.00745874,0.01127766,0.00074154,-0.00015953,-0.00015401,0.0001238
 2,-0.00006092,0.00006661,-0.00000758,-0.00005039,0.00005723,0.00000834
 ,0.00000793,0.00001854,-0.00000771,0.00078368,-0.00051296,0.00004287,-
 0.00002208,-0.00018918,0.00040305,-0.11644130,0.11838456,0.01395516,0.
 12277079,-0.00053830,0.00072353,0.00093721,0.00085888,-0.00004536,0.00
 073377,0.00055616,-0.00065689,0.00016118,-0.00006671,-0.00003366,-0.00
 001629,0.00241720,-0.00624197,-0.00184489,0.00001488,0.00024293,0.0000
 1819,0.00002546,-0.00004934,-0.00001044,0.00005654,-0.00005239,0.00000
 331,0.00000434,-0.00003463,0.00000453,-0.00035744,0.00003048,0.0000253
 1,0.00019782,0.00053610,0.00026482,0.11835884,-0.24435079,-0.02172573,
 -0.13041256,0.26269030,-0.00189773,-0.00220921,-0.00639697,0.00046064,
 0.00070886,0.00127556,-0.00123837,0.00191792,0.00024495,0.00014459,0.0
 0012340,-0.00003754,-0.01552037,0.02818434,0.00117758,-0.00038691,-0.0
 0033881,0.00006599,-0.00007369,0.00010012,0.00000319,-0.00011712,0.000
 14052,-0.00000186,0.00001477,0.00003848,-0.00001458,0.00068954,-0.0002
 0102,0.00156911,0.00025867,-0.00059853,0.00108617,0.01494351,-0.024329
 07,-0.04771300,-0.01279952,0.02295829,0.05282095,0.00105972,-0.0000184
 2,0.00001307,0.00019799,-0.00037989,0.00008892,0.00009945,-0.00048013,
 0.00023357,-0.00004686,-0.00001281,-0.00003656,0.01072528,0.00231612,-
 0.01117905,-0.00000395,0.00003048,0.00002417,0.00001472,-0.00002060,-0
 .00001498,0.00001893,-0.00001606,0.00000339,0.00002386,-0.00002388,-0.
 00000247,-0.00004779,0.00129314,-0.00317997,0.00091235,-0.00019275,0.0
 0079773,-0.18664317,-0.02527301,0.13236841,-0.01136453,-0.00321610,0.0
 0951332,0.19878137,-0.00110502,0.00058965,0.00072947,0.00031562,-0.000
 26246,-0.00039095,0.00017193,0.00003642,-0.00006913,-0.00003809,0.0000
 2308,0.00000007,-0.00599876,-0.00239679,0.00594552,-0.00002841,0.00000
 595,-0.00001307,-0.00000292,-0.00000323,0.00000083,-0.00000588,0.00000
 449,-0.00000090,0.00000019,-0.00000493,0.00000173,0.00079720,0.0005349
 8,0.00159416,0.00047075,0.00019385,-0.00046964,-0.02490169,-0.05150236
 ,0.02313454,0.01958671,0.00472621,-0.01897852,0.02657764,0.05035063,0.
 00138717,-0.00224114,0.00011987,0.00005749,0.00097076,0.00044272,-0.00
 065123,0.00030515,-0.00006689,0.00005161,0.00001296,0.00003419,0.02005
 472,0.00475757,-0.02094049,0.00008506,-0.00009755,-0.00011081,-0.00000
 568,0.00002804,0.00001254,-0.00002209,0.00002547,-0.00000840,-0.000034
 13,0.00005103,-0.00001254,-0.00312596,0.00199432,-0.00453310,0.0001123
 6,-0.00066199,0.00105228,0.13031628,0.02326634,-0.16853365,0.00127626,
 0.00014053,-0.00205453,-0.14157621,-0.02790839,0.18709026,-0.00104767,
 -0.00278645,-0.00102532,0.00110164,0.00040496,0.00150902,0.00025105,0.
 00033808,0.00010750,0.00019242,0.00000722,0.00005134,-0.00935453,-0.00
 819220,-0.00468223,-0.00003827,0.00005972,0.00006069,-0.00001731,0.000
 01465,0.00000225,0.00001325,0.00001065,0.00000506,-0.00001002,0.000002
 77,-0.00001193,0.00077166,0.00044982,0.00018228,0.00015398,0.00121455,
 -0.00247813,-0.15146474,-0.12075209,-0.05293030,0.01150353,0.01210098,
 0.00600866,-0.01372737,-0.01583926,-0.00792565,0.16167238,0.00096735,-
 0.00055969,-0.00052129,0.00044182,-0.00005494,0.00075208,-0.00055904,-
 0.00008728,-0.00017271,-0.00013438,0.00021304,-0.00000177,0.00594290,0
 .00733366,0.00287081,0.00001536,-0.00014206,-0.00002444,0.00000435,0.0
 0000428,0.00000910,-0.00002388,0.00002661,-0.00000412,0.00000670,0.000
 01799,-0.00000151,-0.00023649,0.00053087,-0.00068119,0.00158945,0.0000
 3965,0.00180401,-0.12317674,-0.18498877,-0.06327984,-0.01722029,-0.017
 48452,-0.00751677,-0.00058371,-0.00229548,-0.00064309,0.13296660,0.197
 44666,-0.00052976,-0.00235117,0.00000992,0.00143291,0.00047299,0.00078
 349,0.00002656,0.00032286,0.00014425,0.00032911,-0.00012426,0.00010989
 ,-0.01972936,-0.02144171,-0.01125935,0.00001737,0.00003097,0.00006521,
 -0.00003187,0.00004339,-0.00000216,0.00000159,0.00000991,0.00000045,-0
 .00000619,0.00003078,-0.00000828,0.00066380,-0.00052525,0.00111481,-0.
 00259992,0.00239233,-0.00484498,-0.05217093,-0.06104610,-0.07289553,-0
 .00147673,-0.00164979,-0.00202503,0.01294666,0.01642429,0.00750853,0.0
 6112676,0.06741076,0.08129878\\0.00002544,-0.00000188,0.00001506,-0.00
 000746,-0.00000746,-0.00000778,-0.00001482,0.00000097,0.00000020,0.000
 00018,-0.00000781,-0.00000651,0.00001478,0.00000730,0.00000186,0.00001
 290,-0.00000420,-0.00000294,-0.00000368,0.00000140,0.00000227,-0.00000
 517,-0.00000061,0.00000013,-0.00000126,0.00000116,0.00000102,-0.000008
 66,0.00000633,0.00000276,-0.00000919,-0.00000063,-0.00000079,-0.000013
 26,0.00000014,-0.00000801,0.00000352,0.00000123,-0.00000120,0.00000305
 ,0.00000356,-0.00000151,0.00000361,0.00000050,0.00000545\\\@


 ANYONE WHO IS NOT SHOCKED BY QUANTUM THEORY HAS
 NOT UNDERSTOOD IT. -- NIELS BOHR(1885-1962)
 Job cpu time:       0 days  0 hours 39 minutes  8.8 seconds.
 Elapsed time:       0 days  0 hours  1 minutes 38.1 seconds.
 File lengths (MBytes):  RWF=    107 Int=      0 D2E=      0 Chk=     10 Scr=      1
 Normal termination of Gaussian 16 at Thu Aug 29 08:30:23 2024.
