 Entering Gaussian System, Link 0=g16
 Input=input.com
 Output=input.log
 Initial command:
 /share/apps/g16.b01_avx2/g16/l1.exe "/scratch/Gau-1844816.inp" -scrdir="/scratch/"
 Entering Link 1 = /share/apps/g16.b01_avx2/g16/l1.exe PID=   1844818.
  
 Copyright (c) 1988-2017, Gaussian, Inc.  All Rights Reserved.
  
 This is part of the Gaussian(R) 16 program.  It is based on
 the Gaussian(R) 09 system (copyright 2009, Gaussian, Inc.),
 the Gaussian(R) 03 system (copyright 2003, Gaussian, Inc.),
 the Gaussian(R) 98 system (copyright 1998, Gaussian, Inc.),
 the Gaussian(R) 94 system (copyright 1995, Gaussian, Inc.),
 the Gaussian 92(TM) system (copyright 1992, Gaussian, Inc.),
 the Gaussian 90(TM) system (copyright 1990, Gaussian, Inc.),
 the Gaussian 88(TM) system (copyright 1988, Gaussian, Inc.),
 the Gaussian 86(TM) system (copyright 1986, Carnegie Mellon
 University), and the Gaussian 82(TM) system (copyright 1983,
 Carnegie Mellon University). Gaussian is a federally registered
 trademark of Gaussian, Inc.
  
 This software contains proprietary and confidential information,
 including trade secrets, belonging to Gaussian, Inc.
  
 This software is provided under written license and may be
 used, copied, transmitted, or stored only in accord with that
 written license.
  
 The following legend is applicable only to US Government
 contracts under FAR:
  
                    RESTRICTED RIGHTS LEGEND
  
 Use, reproduction and disclosure by the US Government is
 subject to restrictions as set forth in subparagraphs (a)
 and (c) of the Commercial Computer Software - Restricted
 Rights clause in FAR 52.227-19.
  
 Gaussian, Inc.
 340 Quinnipiac St., Bldg. 40, Wallingford CT 06492
  
  
 ---------------------------------------------------------------
 Warning -- This program may not be used in any manner that
 competes with the business of Gaussian, Inc. or will provide
 assistance to any competitor of Gaussian, Inc.  The licensee
 of this program is prohibited from giving any competitor of
 Gaussian, Inc. access to this program.  By using this program,
 the user acknowledges that Gaussian, Inc. is engaged in the
 business of creating and licensing software in the field of
 computational chemistry and represents and warrants to the
 licensee that it is not a competitor of Gaussian, Inc. and that
 it will not use this program in any manner prohibited above.
 ---------------------------------------------------------------
  

 Cite this work as:
 Gaussian 16, Revision B.01,
 M. J. Frisch, G. W. Trucks, H. B. Schlegel, G. E. Scuseria, 
 M. A. Robb, J. R. Cheeseman, G. Scalmani, V. Barone, 
 G. A. Petersson, H. Nakatsuji, X. Li, M. Caricato, A. V. Marenich, 
 J. Bloino, B. G. Janesko, R. Gomperts, B. Mennucci, H. P. Hratchian, 
 J. V. Ortiz, A. F. Izmaylov, J. L. Sonnenberg, D. Williams-Young, 
 F. Ding, F. Lipparini, F. Egidi, J. Goings, B. Peng, A. Petrone, 
 T. Henderson, D. Ranasinghe, V. G. Zakrzewski, J. Gao, N. Rega, 
 G. Zheng, W. Liang, M. Hada, M. Ehara, K. Toyota, R. Fukuda, 
 J. Hasegawa, M. Ishida, T. Nakajima, Y. Honda, O. Kitao, H. Nakai, 
 T. Vreven, K. Throssell, J. A. Montgomery, Jr., J. E. Peralta, 
 F. Ogliaro, M. J. Bearpark, J. J. Heyd, E. N. Brothers, K. N. Kudin, 
 V. N. Staroverov, T. A. Keith, R. Kobayashi, J. Normand, 
 K. Raghavachari, A. P. Rendell, J. C. Burant, S. S. Iyengar, 
 J. Tomasi, M. Cossi, J. M. Millam, M. Klene, C. Adamo, R. Cammi, 
 J. W. Ochterski, R. L. Martin, K. Morokuma, O. Farkas, 
 J. B. Foresman, and D. J. Fox, Gaussian, Inc., Wallingford CT, 2016.
 
 ******************************************
 Gaussian 16:  ES64L-G16RevB.01 20-Dec-2017
                28-Aug-2024 
 ******************************************
 %nproc=24
 Will use up to   24 processors via shared memory.
 %mem=64GB
 ----------------------------------------------------------------------
 #P PBE1PBE/def2TZVP opt freq EmpiricalDispersion=GD3 Int=(grid=99590) 
 scrf=(iefpcm, solvent=water)
 ----------------------------------------------------------------------
 1/18=20,19=15,26=6,38=1/1,3;
 2/9=110,12=2,17=6,18=5,40=1/2;
 3/5=44,7=101,11=2,25=1,30=1,70=2201,71=1,72=1,74=-13,75=99590,124=31/1,2,3;
 4//1;
 5/5=2,38=5,53=1/2;
 6/7=2,8=2,9=2,10=2,28=1/1;
 7//1,2,3,16;
 1/18=20,19=15,26=6/3(2);
 2/9=110/2;
 99//99;
 2/9=110/2;
 3/5=44,7=101,11=2,25=1,30=1,70=2205,71=1,72=1,74=-13,75=99590,124=31/1,2,3;
 4/5=5,16=3,69=1/1;
 5/5=2,38=5,53=1/2;
 7//1,2,3,16;
 1/18=20,19=15,26=6/3(-5);
 2/9=110/2;
 6/7=2,8=2,9=2,10=2,19=2,28=1/1;
 99/9=1/99;
 Leave Link    1 at Wed Aug 28 20:53:27 2024, MaxMem=  8589934592 cpu:               0.7 elap:               0.0
 (Enter /share/apps/g16.b01_avx2/g16/l101.exe)
 ---------------------------
 cf3-methylacetamide product
 ---------------------------
 Symbolic Z-matrix:
 Charge =  0 Multiplicity = 1
 C                     0.64172   0.80342   0.17601 
 O                     0.03378  -0.29782   0.14071 
 N                     2.07657   0.84102   0.49332 
 H                     2.49971   1.62069   0.03173 
 C                    -0.11747   2.11169  -0.11322 
 C                     2.71227  -0.40309   0.0362 
 H                     2.58335  -0.5018   -1.02141 
 H                     3.75669  -0.37571   0.26717 
 H                     2.25951  -1.23734   0.5301 
 F                    -1.40623   1.97729   0.26566 
 F                    -0.06274   2.38095  -1.43496 
 F                     0.45103   3.12369   0.57611 
 
 ITRead=  0  0  0  0  0  0  0  0  0  0  0  0
 MicOpt= -1 -1 -1 -1 -1 -1 -1 -1 -1 -1 -1 -1
 NAtoms=     12 NQM=       12 NQMF=       0 NMMI=      0 NMMIF=      0
                NMic=       0 NMicF=      0.
                    Isotopes and Nuclear Properties:
 (Nuclear quadrupole moments (NQMom) in fm**2, nuclear magnetic moments (NMagM)
  in nuclear magnetons)

  Atom         1           2           3           4           5           6           7           8           9          10
 IAtWgt=          12          16          14           1          12          12           1           1           1          19
 AtmWgt=  12.0000000  15.9949146  14.0030740   1.0078250  12.0000000  12.0000000   1.0078250   1.0078250   1.0078250  18.9984032
 NucSpn=           0           0           2           1           0           0           1           1           1           1
 AtZEff=  -0.0000000  -0.0000000  -0.0000000  -0.0000000  -0.0000000  -0.0000000  -0.0000000  -0.0000000  -0.0000000  -0.0000000
 NQMom=    0.0000000   0.0000000   2.0440000   0.0000000   0.0000000   0.0000000   0.0000000   0.0000000   0.0000000   0.0000000
 NMagM=    0.0000000   0.0000000   0.4037610   2.7928460   0.0000000   0.0000000   2.7928460   2.7928460   2.7928460   2.6288670
 AtZNuc=   6.0000000   8.0000000   7.0000000   1.0000000   6.0000000   6.0000000   1.0000000   1.0000000   1.0000000   9.0000000

  Atom        11          12
 IAtWgt=          19          19
 AtmWgt=  18.9984032  18.9984032
 NucSpn=           1           1
 AtZEff=  -0.0000000  -0.0000000
 NQMom=    0.0000000   0.0000000
 NMagM=    2.6288670   2.6288670
 AtZNuc=   9.0000000   9.0000000
 Leave Link  101 at Wed Aug 28 20:53:27 2024, MaxMem=  8589934592 cpu:               6.5 elap:               0.3
 (Enter /share/apps/g16.b01_avx2/g16/l103.exe)

 GradGradGradGradGradGradGradGradGradGradGradGradGradGradGradGradGradGrad
 Berny optimization.
 Initialization pass.
                           ----------------------------
                           !    Initial Parameters    !
                           ! (Angstroms and Degrees)  !
 --------------------------                            --------------------------
 ! Name  Definition              Value          Derivative Info.                !
 --------------------------------------------------------------------------------
 ! R1    R(1,2)                  1.2584         estimate D2E/DX2                !
 ! R2    R(1,3)                  1.47           estimate D2E/DX2                !
 ! R3    R(1,5)                  1.54           estimate D2E/DX2                !
 ! R4    R(3,4)                  1.0            estimate D2E/DX2                !
 ! R5    R(3,6)                  1.47           estimate D2E/DX2                !
 ! R6    R(5,10)                 1.35           estimate D2E/DX2                !
 ! R7    R(5,11)                 1.35           estimate D2E/DX2                !
 ! R8    R(5,12)                 1.35           estimate D2E/DX2                !
 ! R9    R(6,7)                  1.07           estimate D2E/DX2                !
 ! R10   R(6,8)                  1.07           estimate D2E/DX2                !
 ! R11   R(6,9)                  1.07           estimate D2E/DX2                !
 ! A1    A(2,1,3)              120.0            estimate D2E/DX2                !
 ! A2    A(2,1,5)              120.0            estimate D2E/DX2                !
 ! A3    A(3,1,5)              120.0            estimate D2E/DX2                !
 ! A4    A(1,3,4)              109.4712         estimate D2E/DX2                !
 ! A5    A(1,3,6)              109.4712         estimate D2E/DX2                !
 ! A6    A(4,3,6)              109.4712         estimate D2E/DX2                !
 ! A7    A(1,5,10)             109.4712         estimate D2E/DX2                !
 ! A8    A(1,5,11)             109.4712         estimate D2E/DX2                !
 ! A9    A(1,5,12)             109.4712         estimate D2E/DX2                !
 ! A10   A(10,5,11)            109.4712         estimate D2E/DX2                !
 ! A11   A(10,5,12)            109.4712         estimate D2E/DX2                !
 ! A12   A(11,5,12)            109.4712         estimate D2E/DX2                !
 ! A13   A(3,6,7)              109.4712         estimate D2E/DX2                !
 ! A14   A(3,6,8)              109.4712         estimate D2E/DX2                !
 ! A15   A(3,6,9)              109.4712         estimate D2E/DX2                !
 ! A16   A(7,6,8)              109.4712         estimate D2E/DX2                !
 ! A17   A(7,6,9)              109.4712         estimate D2E/DX2                !
 ! A18   A(8,6,9)              109.4712         estimate D2E/DX2                !
 ! D1    D(2,1,3,4)            150.0            estimate D2E/DX2                !
 ! D2    D(2,1,3,6)             30.0            estimate D2E/DX2                !
 ! D3    D(5,1,3,4)            -30.0            estimate D2E/DX2                !
 ! D4    D(5,1,3,6)           -150.0            estimate D2E/DX2                !
 ! D5    D(2,1,5,10)            30.0            estimate D2E/DX2                !
 ! D6    D(2,1,5,11)           -90.0            estimate D2E/DX2                !
 ! D7    D(2,1,5,12)           150.0            estimate D2E/DX2                !
 ! D8    D(3,1,5,10)          -150.0            estimate D2E/DX2                !
 ! D9    D(3,1,5,11)            90.0            estimate D2E/DX2                !
 ! D10   D(3,1,5,12)           -30.0            estimate D2E/DX2                !
 ! D11   D(1,3,6,7)             60.0            estimate D2E/DX2                !
 ! D12   D(1,3,6,8)            180.0            estimate D2E/DX2                !
 ! D13   D(1,3,6,9)            -60.0            estimate D2E/DX2                !
 ! D14   D(4,3,6,7)            -60.0            estimate D2E/DX2                !
 ! D15   D(4,3,6,8)             60.0            estimate D2E/DX2                !
 ! D16   D(4,3,6,9)            180.0            estimate D2E/DX2                !
 --------------------------------------------------------------------------------
 Trust Radius=3.00D-01 FncErr=5.00D-06 GrdErr=5.00D-06 EigMax=2.50D+02 EigMin=1.00D-04
 Number of steps in this run=     55 maximum allowed number of steps=    100.
 GradGradGradGradGradGradGradGradGradGradGradGradGradGradGradGradGradGrad

 Leave Link  103 at Wed Aug 28 20:53:27 2024, MaxMem=  8589934592 cpu:               0.1 elap:               0.0
 (Enter /share/apps/g16.b01_avx2/g16/l202.exe)
                          Input orientation:                          
 ---------------------------------------------------------------------
 Center     Atomic      Atomic             Coordinates (Angstroms)
 Number     Number       Type             X           Y           Z
 ---------------------------------------------------------------------
      1          6           0        0.641720    0.803417    0.176008
      2          8           0        0.033777   -0.297823    0.140708
      3          7           0        2.076571    0.841025    0.493323
      4          1           0        2.499714    1.620695    0.031733
      5          6           0       -0.117471    2.111690   -0.113218
      6          6           0        2.712275   -0.403089    0.036199
      7          1           0        2.583346   -0.501795   -1.021409
      8          1           0        3.756690   -0.375714    0.267170
      9          1           0        2.259511   -1.237335    0.530100
     10          9           0       -1.406226    1.977291    0.265657
     11          9           0       -0.062739    2.380953   -1.434960
     12          9           0        0.451028    3.123688    0.576107
 ---------------------------------------------------------------------
                    Distance matrix (angstroms):
                    1          2          3          4          5
     1  C    0.000000
     2  O    1.258400   0.000000
     3  N    1.470000   2.365231   0.000000
     4  H    2.034920   3.126249   1.000000   0.000000
     5  C    1.540000   2.427572   2.606971   2.666785   0.000000
     6  C    2.400500   2.682602   1.470000   2.034920   3.788654
     7  H    2.628174   2.809346   2.086720   2.370879   3.866462
     8  H    3.331921   3.725875   2.086720   2.370879   4.619632
     9  H    2.628174   2.447081   2.086720   2.911082   4.156906
    10  F    2.362224   2.695434   3.670532   3.929154   1.350000
    11  F    2.362224   3.109323   3.265930   3.048827   1.350000
    12  F    2.362224   3.474249   2.803532   2.598547   1.350000
                    6          7          8          9         10
     6  C    0.000000
     7  H    1.070000   0.000000
     8  H    1.070000   1.747303   0.000000
     9  H    1.070000   1.747303   1.747303   0.000000
    10  F    4.762448   4.870226   5.673829   4.882764   0.000000
    11  F    4.197130   3.934848   5.008443   4.727189   2.204541
    12  F    4.224084   4.499218   4.823760   4.721361   2.204541
                   11         12
    11  F    0.000000
    12  F    2.204541   0.000000
 Stoichiometry    C3H4F3NO
 Framework group  C1[X(C3H4F3NO)]
 Deg. of freedom    30
 Full point group                 C1      NOp   1
 Largest Abelian subgroup         C1      NOp   1
 Largest concise Abelian subgroup C1      NOp   1
                         Standard orientation:                         
 ---------------------------------------------------------------------
 Center     Atomic      Atomic             Coordinates (Angstroms)
 Number     Number       Type             X           Y           Z
 ---------------------------------------------------------------------
      1          6           0        0.433948    0.333217   -0.147519
      2          8           0        0.744133    1.551427   -0.089906
      3          7           0        1.473840   -0.679915   -0.377932
      4          1           0        1.209193   -1.536114    0.065785
      5          6           0       -1.035058   -0.096224    0.023361
      6          6           0        2.748467   -0.210383    0.183999
      7          1           0        2.636156   -0.047299    1.235517
      8          1           0        3.505394   -0.947833    0.016283
      9          1           0        3.031639    0.705750   -0.290779
     10          9           0       -1.845957    0.885160   -0.425893
     11          9           0       -1.287679   -0.326092    1.329440
     12          9           0       -1.259304   -1.224198   -0.683667
 ---------------------------------------------------------------------
 Rotational constants (GHZ):           3.4534282           1.4430226           1.2763127
 Leave Link  202 at Wed Aug 28 20:53:27 2024, MaxMem=  8589934592 cpu:               0.0 elap:               0.0
 (Enter /share/apps/g16.b01_avx2/g16/l301.exe)
 Standard basis: def2TZVP (5D, 7F)
 Ernie: Thresh=  0.10000D-02 Tol=  0.10000D-05 Strict=F.
 There are   312 symmetry adapted cartesian basis functions of A   symmetry.
 There are   272 symmetry adapted basis functions of A   symmetry.
   272 basis functions,   440 primitive gaussians,   312 cartesian basis functions
    32 alpha electrons       32 beta electrons
       nuclear repulsion energy       411.7484512738 Hartrees.
 IExCor= 1009 DFT=T Ex+Corr=PBE1PBE ExCW=0 ScaHFX=  0.250000
 ScaDFX=  0.750000  0.750000  1.000000  1.000000 ScalE2=  1.000000  1.000000
 IRadAn=  99590 IRanWt=     -1 IRanGd=            0 ICorTp=0 IEmpDi=131
 NAtoms=   12 NActive=   12 NUniq=   12 SFac= 1.00D+00 NAtFMM=   60 NAOKFM=F Big=F
 Integral buffers will be    131072 words long.
 Raffenetti 2 integral format.
 Two-electron integral symmetry is turned on.
 R6Disp:  Grimme-D3 Dispersion energy=       -0.0044992267 Hartrees.
 Nuclear repulsion after empirical dispersion term =      411.7439520471 Hartrees.
 ------------------------------------------------------------------------------
 Polarizable Continuum Model (PCM)
 =================================
 Model                : PCM.
 Atomic radii         : UFF (Universal Force Field).
 Polarization charges : Total charges.
 Charge compensation  : None.
 Solution method      : On-the-fly selection.
 Cavity type          : Scaled VdW (van der Waals Surface) (Alpha=1.100).
 Cavity algorithm     : GePol (No added spheres)
                        Default sphere list used, NSphG=   12.
                        Lebedev-Laikov grids with approx.  5.0 points / Ang**2.
                        Smoothing algorithm: York/Karplus (Gamma=1.0000).
                        Polarization charges: spherical gaussians, with
                                              point-specific exponents (IZeta= 3).
                        Self-potential: point-specific (ISelfS= 7).
                        Self-field    : sphere-specific E.n sum rule (ISelfD= 2).
 1st derivatives      : Analytical E(r).r(x)/FMM algorithm (CHGder, D1EAlg=3).
                        Cavity 1st derivative terms included.
 Solvent              : Water, Eps=  78.355300 Eps(inf)=   1.777849
 ------------------------------------------------------------------------------
 Spheres list:
 ISph  on   Nord     Re0    Alpha      Xe            Ye            Ze
    1   C      1    1.9255  1.100      0.433948      0.333217     -0.147519
    2   O      2    1.7500  1.100      0.744133      1.551427     -0.089906
    3   N      3    1.8300  1.100      1.473840     -0.679915     -0.377932
    4   H      4    1.4430  1.100      1.209193     -1.536114      0.065785
    5   C      5    1.9255  1.100     -1.035058     -0.096224      0.023361
    6   C      6    1.9255  1.100      2.748467     -0.210383      0.183999
    7   H      7    1.4430  1.100      2.636156     -0.047299      1.235517
    8   H      8    1.4430  1.100      3.505394     -0.947833      0.016283
    9   H      9    1.4430  1.100      3.031639      0.705750     -0.290779
   10   F     10    1.6820  1.100     -1.845957      0.885160     -0.425893
   11   F     11    1.6820  1.100     -1.287679     -0.326092      1.329440
   12   F     12    1.6820  1.100     -1.259304     -1.224198     -0.683667
 ------------------------------------------------------------------------------
 GePol: Number of generator spheres                  =      12
 GePol: Total number of spheres                      =      12
 GePol: Number of exposed spheres                    =      12 (100.00%)
 GePol: Number of points                             =    1225
 GePol: Average weight of points                     =       0.13
 GePol: Minimum weight of points                     =   0.18D-10
 GePol: Maximum weight of points                     =    0.20577
 GePol: Number of points with low weight             =      54
 GePol: Fraction of low-weight points (<1% of avg)   =       4.41%
 GePol: Cavity surface area                          =    159.434 Ang**2
 GePol: Cavity volume                                =    147.359 Ang**3
 Leave Link  301 at Wed Aug 28 20:53:27 2024, MaxMem=  8589934592 cpu:               0.7 elap:               0.0
 (Enter /share/apps/g16.b01_avx2/g16/l302.exe)
 NPDir=0 NMtPBC=     1 NCelOv=     1 NCel=       1 NClECP=     1 NCelD=      1
         NCelK=      1 NCelE2=     1 NClLst=     1 CellRange=     0.0.
 One-electron integrals computed using PRISM.
 One-electron integral symmetry used in STVInt
   1 Symmetry operations used in ECPInt.
 ECPInt:  NShTT=    5460 NPrTT=   17208 LenC2=    5274 LenP2D=   13007.
 LDataN:  DoStor=T MaxTD1= 6 Len=  172
 NBasis=   272 RedAO= T EigKep=  5.27D-04  NBF=   272
 NBsUse=   272 1.00D-06 EigRej= -1.00D+00 NBFU=   272
 Precomputing XC quadrature grid using
 IXCGrd= 4 IRadAn=       99590 IRanWt=          -1 IRanGd=           0 AccXCQ= 0.00D+00.
 Generated NRdTot=       0 NPtTot=           0 NUsed=           0 NTot=          32
 NSgBfM=   311   311   311   311   311 MxSgAt=    12 MxSgA2=    12.
 Leave Link  302 at Wed Aug 28 20:53:27 2024, MaxMem=  8589934592 cpu:               3.2 elap:               0.1
 (Enter /share/apps/g16.b01_avx2/g16/l303.exe)
 DipDrv:  MaxL=1.
 Leave Link  303 at Wed Aug 28 20:53:27 2024, MaxMem=  8589934592 cpu:               0.6 elap:               0.0
 (Enter /share/apps/g16.b01_avx2/g16/l401.exe)
 ExpMin= 9.52D-02 ExpMax= 3.55D+04 ExpMxC= 1.21D+03 IAcc=4 IRadAn=    199590 AccDes= 0.00D+00
 Harris functional with IExCor= 1009 and IRadAn=  199590 diagonalized for initial guess.
 HarFok:  IExCor= 1009 AccDes= 0.00D+00 IRadAn=    199590 IDoV= 1 UseB2=F ITyADJ=14
 ICtDFT=  3500011 ScaDFX=  1.000000  1.000000  1.000000  1.000000
 FoFCou: FMM=F IPFlag=           0 FMFlag=      100000 FMFlg1=           0
         NFxFlg=           0 DoJE=T BraDBF=F KetDBF=T FulRan=T
         wScrn=  0.000000 ICntrl=       500 IOpCl=  0 I1Cent=   200000004 NGrid=           0
         NMat0=    1 NMatS0=      1 NMatT0=    0 NMatD0=    1 NMtDS0=    0 NMtDT0=    0
 Petite list used in FoFCou.
 Harris En= -545.961576350541    
 JPrj=0 DoOrth=F DoCkMO=F.
 Leave Link  401 at Wed Aug 28 20:53:28 2024, MaxMem=  8589934592 cpu:              15.2 elap:               0.6
 (Enter /share/apps/g16.b01_avx2/g16/l502.exe)
 Keep R1 ints in memory in canonical form, NReq=716777100.
 FoFCou: FMM=F IPFlag=           0 FMFlag=           0 FMFlg1=           0
         NFxFlg=           0 DoJE=F BraDBF=F KetDBF=F FulRan=T
         wScrn=  0.000000 ICntrl=       600 IOpCl=  0 I1Cent=           0 NGrid=           0
         NMat0=    1 NMatS0=  37128 NMatT0=    0 NMatD0=    1 NMtDS0=    0 NMtDT0=    0
 Symmetry not used in FoFCou.
 Two-electron integral symmetry not used.
 Closed shell SCF:
 Using DIIS extrapolation, IDIIS=  1040.
 NGot=  8589934592 LenX=  7900466874 LenY=  7900369089
 Requested convergence on RMS density matrix=1.00D-08 within 128 cycles.
 Requested convergence on MAX density matrix=1.00D-06.
 Requested convergence on             energy=1.00D-06.
 No special actions if energy rises.

 Cycle   1  Pass 1  IDiag  1:
 Inv3:  Mode=1 IEnd=     4501875.
 Iteration    1 A*A^-1 deviation from unit magnitude is 2.89D-15 for     55.
 Iteration    1 A*A^-1 deviation from orthogonality  is 1.87D-15 for   1153    761.
 Iteration    1 A^-1*A deviation from unit magnitude is 3.00D-15 for    909.
 Iteration    1 A^-1*A deviation from orthogonality  is 1.78D-15 for    951    643.
 E= -545.731886730440    
 DIIS: error= 2.07D-02 at cycle   1 NSaved=   1.
 NSaved= 1 IEnMin= 1 EnMin= -545.731886730440     IErMin= 1 ErrMin= 2.07D-02
 ErrMax= 2.07D-02  0.00D+00 EMaxC= 1.00D-01 BMatC= 2.57D-01 BMatP= 2.57D-01
 IDIUse=3 WtCom= 7.93D-01 WtEn= 2.07D-01
 Coeff-Com:  0.100D+01
 Coeff-En:   0.100D+01
 Coeff:      0.100D+01
 Gap=     0.183 Goal=   None    Shift=    0.000
 GapD=    0.183 DampG=1.000 DampE=0.500 DampFc=0.5000 IDamp=-1.
 Damping current iteration by 5.00D-01
 RMSDP=2.55D-03 MaxDP=1.14D-01              OVMax= 2.21D-01

 Cycle   2  Pass 1  IDiag  1:
 E= -545.760899302269     Delta-E=       -0.029012571828 Rises=F Damp=T
 DIIS: error= 8.12D-03 at cycle   2 NSaved=   2.
 NSaved= 2 IEnMin= 2 EnMin= -545.760899302269     IErMin= 2 ErrMin= 8.12D-03
 ErrMax= 8.12D-03  0.00D+00 EMaxC= 1.00D-01 BMatC= 4.79D-02 BMatP= 2.57D-01
 IDIUse=3 WtCom= 9.19D-01 WtEn= 8.12D-02
 Coeff-Com:  0.249D+00 0.751D+00
 Coeff-En:   0.424D+00 0.576D+00
 Coeff:      0.264D+00 0.736D+00
 Gap=     0.255 Goal=   None    Shift=    0.000
 RMSDP=7.27D-04 MaxDP=2.97D-02 DE=-2.90D-02 OVMax= 1.85D-01

 Cycle   3  Pass 1  IDiag  1:
 E= -545.890816724418     Delta-E=       -0.129917422149 Rises=F Damp=F
 DIIS: error= 6.77D-03 at cycle   3 NSaved=   3.
 NSaved= 3 IEnMin= 3 EnMin= -545.890816724418     IErMin= 3 ErrMin= 6.77D-03
 ErrMax= 6.77D-03  0.00D+00 EMaxC= 1.00D-01 BMatC= 2.17D-02 BMatP= 4.79D-02
 IDIUse=3 WtCom= 9.32D-01 WtEn= 6.77D-02
 Coeff-Com:  0.625D-01 0.402D+00 0.535D+00
 Coeff-En:   0.000D+00 0.000D+00 0.100D+01
 Coeff:      0.583D-01 0.375D+00 0.567D+00
 Gap=     0.252 Goal=   None    Shift=    0.000
 RMSDP=4.19D-04 MaxDP=2.34D-02 DE=-1.30D-01 OVMax= 5.72D-02

 Cycle   4  Pass 1  IDiag  1:
 E= -545.904206611100     Delta-E=       -0.013389886683 Rises=F Damp=F
 DIIS: error= 2.59D-03 at cycle   4 NSaved=   4.
 NSaved= 4 IEnMin= 4 EnMin= -545.904206611100     IErMin= 4 ErrMin= 2.59D-03
 ErrMax= 2.59D-03  0.00D+00 EMaxC= 1.00D-01 BMatC= 5.27D-03 BMatP= 2.17D-02
 IDIUse=3 WtCom= 9.74D-01 WtEn= 2.59D-02
 Coeff-Com: -0.810D-02 0.972D-01 0.351D+00 0.559D+00
 Coeff-En:   0.000D+00 0.000D+00 0.210D+00 0.790D+00
 Coeff:     -0.789D-02 0.947D-01 0.348D+00 0.565D+00
 Gap=     0.244 Goal=   None    Shift=    0.000
 RMSDP=1.69D-04 MaxDP=7.58D-03 DE=-1.34D-02 OVMax= 2.63D-02

 Cycle   5  Pass 1  IDiag  1:
 E= -545.908014785685     Delta-E=       -0.003808174584 Rises=F Damp=F
 DIIS: error= 7.04D-04 at cycle   5 NSaved=   5.
 NSaved= 5 IEnMin= 5 EnMin= -545.908014785685     IErMin= 5 ErrMin= 7.04D-04
 ErrMax= 7.04D-04  0.00D+00 EMaxC= 1.00D-01 BMatC= 3.30D-04 BMatP= 5.27D-03
 IDIUse=3 WtCom= 9.93D-01 WtEn= 7.04D-03
 Coeff-Com: -0.837D-02 0.225D-01 0.146D+00 0.305D+00 0.535D+00
 Coeff-En:   0.000D+00 0.000D+00 0.000D+00 0.000D+00 0.100D+01
 Coeff:     -0.831D-02 0.224D-01 0.145D+00 0.303D+00 0.538D+00
 Gap=     0.243 Goal=   None    Shift=    0.000
 RMSDP=4.32D-05 MaxDP=1.79D-03 DE=-3.81D-03 OVMax= 5.80D-03

 Cycle   6  Pass 1  IDiag  1:
 E= -545.908277135705     Delta-E=       -0.000262350020 Rises=F Damp=F
 DIIS: error= 1.72D-04 at cycle   6 NSaved=   6.
 NSaved= 6 IEnMin= 6 EnMin= -545.908277135705     IErMin= 6 ErrMin= 1.72D-04
 ErrMax= 1.72D-04  0.00D+00 EMaxC= 1.00D-01 BMatC= 1.23D-05 BMatP= 3.30D-04
 IDIUse=3 WtCom= 9.98D-01 WtEn= 1.72D-03
 Coeff-Com: -0.296D-02 0.300D-02 0.383D-01 0.876D-01 0.231D+00 0.643D+00
 Coeff-En:   0.000D+00 0.000D+00 0.000D+00 0.000D+00 0.000D+00 0.100D+01
 Coeff:     -0.296D-02 0.299D-02 0.382D-01 0.874D-01 0.231D+00 0.643D+00
 Gap=     0.243 Goal=   None    Shift=    0.000
 RMSDP=7.88D-06 MaxDP=4.15D-04 DE=-2.62D-04 OVMax= 9.10D-04

 Cycle   7  Pass 1  IDiag  1:
 E= -545.908286399855     Delta-E=       -0.000009264150 Rises=F Damp=F
 DIIS: error= 3.78D-05 at cycle   7 NSaved=   7.
 NSaved= 7 IEnMin= 7 EnMin= -545.908286399855     IErMin= 7 ErrMin= 3.78D-05
 ErrMax= 3.78D-05  0.00D+00 EMaxC= 1.00D-01 BMatC= 6.53D-07 BMatP= 1.23D-05
 IDIUse=1 WtCom= 1.00D+00 WtEn= 0.00D+00
 Coeff-Com: -0.908D-03 0.255D-03 0.979D-02 0.224D-01 0.751D-01 0.269D+00
 Coeff-Com:  0.624D+00
 Coeff:     -0.908D-03 0.255D-03 0.979D-02 0.224D-01 0.751D-01 0.269D+00
 Coeff:      0.624D+00
 Gap=     0.243 Goal=   None    Shift=    0.000
 RMSDP=2.22D-06 MaxDP=8.81D-05 DE=-9.26D-06 OVMax= 1.67D-04

 Cycle   8  Pass 1  IDiag  1:
 E= -545.908286780004     Delta-E=       -0.000000380149 Rises=F Damp=F
 DIIS: error= 1.35D-05 at cycle   8 NSaved=   8.
 NSaved= 8 IEnMin= 8 EnMin= -545.908286780004     IErMin= 8 ErrMin= 1.35D-05
 ErrMax= 1.35D-05  0.00D+00 EMaxC= 1.00D-01 BMatC= 1.07D-07 BMatP= 6.53D-07
 IDIUse=1 WtCom= 1.00D+00 WtEn= 0.00D+00
 Coeff-Com:  0.491D-05-0.335D-03-0.938D-03-0.272D-02 0.280D-02 0.331D-01
 Coeff-Com:  0.302D+00 0.666D+00
 Coeff:      0.491D-05-0.335D-03-0.938D-03-0.272D-02 0.280D-02 0.331D-01
 Coeff:      0.302D+00 0.666D+00
 Gap=     0.243 Goal=   None    Shift=    0.000
 RMSDP=7.83D-07 MaxDP=2.84D-05 DE=-3.80D-07 OVMax= 8.01D-05

 Cycle   9  Pass 1  IDiag  1:
 E= -545.908286857551     Delta-E=       -0.000000077547 Rises=F Damp=F
 DIIS: error= 3.30D-06 at cycle   9 NSaved=   9.
 NSaved= 9 IEnMin= 9 EnMin= -545.908286857551     IErMin= 9 ErrMin= 3.30D-06
 ErrMax= 3.30D-06  0.00D+00 EMaxC= 1.00D-01 BMatC= 4.17D-09 BMatP= 1.07D-07
 IDIUse=1 WtCom= 1.00D+00 WtEn= 0.00D+00
 Coeff-Com:  0.417D-04-0.130D-03-0.650D-03-0.183D-02-0.204D-02-0.956D-03
 Coeff-Com:  0.790D-01 0.250D+00 0.676D+00
 Coeff:      0.417D-04-0.130D-03-0.650D-03-0.183D-02-0.204D-02-0.956D-03
 Coeff:      0.790D-01 0.250D+00 0.676D+00
 Gap=     0.243 Goal=   None    Shift=    0.000
 RMSDP=1.86D-07 MaxDP=4.46D-06 DE=-7.75D-08 OVMax= 1.47D-05

 Cycle  10  Pass 1  IDiag  1:
 E= -545.908286860386     Delta-E=       -0.000000002835 Rises=F Damp=F
 DIIS: error= 4.97D-07 at cycle  10 NSaved=  10.
 NSaved=10 IEnMin=10 EnMin= -545.908286860386     IErMin=10 ErrMin= 4.97D-07
 ErrMax= 4.97D-07  0.00D+00 EMaxC= 1.00D-01 BMatC= 1.75D-10 BMatP= 4.17D-09
 IDIUse=1 WtCom= 1.00D+00 WtEn= 0.00D+00
 Coeff-Com:  0.137D-04-0.233D-04-0.135D-03-0.398D-03-0.792D-03-0.259D-02
 Coeff-Com:  0.463D-02 0.349D-01 0.196D+00 0.769D+00
 Coeff:      0.137D-04-0.233D-04-0.135D-03-0.398D-03-0.792D-03-0.259D-02
 Coeff:      0.463D-02 0.349D-01 0.196D+00 0.769D+00
 Gap=     0.243 Goal=   None    Shift=    0.000
 RMSDP=5.51D-08 MaxDP=1.88D-06 DE=-2.83D-09 OVMax= 4.36D-06

 Cycle  11  Pass 1  IDiag  1:
 E= -545.908286860540     Delta-E=       -0.000000000154 Rises=F Damp=F
 DIIS: error= 1.49D-07 at cycle  11 NSaved=  11.
 NSaved=11 IEnMin=11 EnMin= -545.908286860540     IErMin=11 ErrMin= 1.49D-07
 ErrMax= 1.49D-07  0.00D+00 EMaxC= 1.00D-01 BMatC= 2.11D-11 BMatP= 1.75D-10
 IDIUse=1 WtCom= 1.00D+00 WtEn= 0.00D+00
 Coeff-Com:  0.206D-05-0.171D-05 0.632D-05 0.283D-05-0.123D-03-0.804D-03
 Coeff-Com: -0.413D-02-0.667D-02 0.163D-01 0.271D+00 0.725D+00
 Coeff:      0.206D-05-0.171D-05 0.632D-05 0.283D-05-0.123D-03-0.804D-03
 Coeff:     -0.413D-02-0.667D-02 0.163D-01 0.271D+00 0.725D+00
 Gap=     0.243 Goal=   None    Shift=    0.000
 RMSDP=1.42D-08 MaxDP=5.23D-07 DE=-1.54D-10 OVMax= 2.11D-06

 Cycle  12  Pass 1  IDiag  1:
 E= -545.908286860555     Delta-E=       -0.000000000015 Rises=F Damp=F
 DIIS: error= 7.39D-08 at cycle  12 NSaved=  12.
 NSaved=12 IEnMin=12 EnMin= -545.908286860555     IErMin=12 ErrMin= 7.39D-08
 ErrMax= 7.39D-08  0.00D+00 EMaxC= 1.00D-01 BMatC= 3.23D-12 BMatP= 2.11D-11
 IDIUse=1 WtCom= 1.00D+00 WtEn= 0.00D+00
 Coeff-Com:  0.616D-07 0.104D-05 0.163D-04 0.351D-04 0.103D-04-0.135D-03
 Coeff-Com: -0.224D-02-0.642D-02-0.110D-01 0.515D-01 0.334D+00 0.634D+00
 Coeff:      0.616D-07 0.104D-05 0.163D-04 0.351D-04 0.103D-04-0.135D-03
 Coeff:     -0.224D-02-0.642D-02-0.110D-01 0.515D-01 0.334D+00 0.634D+00
 Gap=     0.243 Goal=   None    Shift=    0.000
 RMSDP=4.71D-09 MaxDP=1.48D-07 DE=-1.55D-11 OVMax= 5.55D-07

 Error on total polarization charges =  0.00702
 SCF Done:  E(RPBE1PBE) =  -545.908286861     A.U. after   12 cycles
            NFock= 12  Conv=0.47D-08     -V/T= 2.0044
 KE= 5.435238334357D+02 PE=-2.113975586099D+03 EE= 6.127995137559D+02
 Leave Link  502 at Wed Aug 28 20:53:39 2024, MaxMem=  8589934592 cpu:             183.4 elap:              11.5
 (Enter /share/apps/g16.b01_avx2/g16/l601.exe)
 Copying SCF densities to generalized density rwf, IOpCl= 0 IROHF=0.

 **********************************************************************

            Population analysis using the SCF Density.

 **********************************************************************

 Orbital symmetries:
       Occupied  (A) (A) (A) (A) (A) (A) (A) (A) (A) (A) (A) (A)
                 (A) (A) (A) (A) (A) (A) (A) (A) (A) (A) (A) (A)
                 (A) (A) (A) (A) (A) (A) (A) (A)
       Virtual   (A) (A) (A) (A) (A) (A) (A) (A) (A) (A) (A) (A)
                 (A) (A) (A) (A) (A) (A) (A) (A) (A) (A) (A) (A)
                 (A) (A) (A) (A) (A) (A) (A) (A) (A) (A) (A) (A)
                 (A) (A) (A) (A) (A) (A) (A) (A) (A) (A) (A) (A)
                 (A) (A) (A) (A) (A) (A) (A) (A) (A) (A) (A) (A)
                 (A) (A) (A) (A) (A) (A) (A) (A) (A) (A) (A) (A)
                 (A) (A) (A) (A) (A) (A) (A) (A) (A) (A) (A) (A)
                 (A) (A) (A) (A) (A) (A) (A) (A) (A) (A) (A) (A)
                 (A) (A) (A) (A) (A) (A) (A) (A) (A) (A) (A) (A)
                 (A) (A) (A) (A) (A) (A) (A) (A) (A) (A) (A) (A)
                 (A) (A) (A) (A) (A) (A) (A) (A) (A) (A) (A) (A)
                 (A) (A) (A) (A) (A) (A) (A) (A) (A) (A) (A) (A)
                 (A) (A) (A) (A) (A) (A) (A) (A) (A) (A) (A) (A)
                 (A) (A) (A) (A) (A) (A) (A) (A) (A) (A) (A) (A)
                 (A) (A) (A) (A) (A) (A) (A) (A) (A) (A) (A) (A)
                 (A) (A) (A) (A) (A) (A) (A) (A) (A) (A) (A) (A)
                 (A) (A) (A) (A) (A) (A) (A) (A) (A) (A) (A) (A)
                 (A) (A) (A) (A) (A) (A) (A) (A) (A) (A) (A) (A)
                 (A) (A) (A) (A) (A) (A) (A) (A) (A) (A) (A) (A)
                 (A) (A) (A) (A) (A) (A) (A) (A) (A) (A) (A) (A)
 The electronic state is 1-A.
 Alpha  occ. eigenvalues --  -24.83111 -24.82866 -24.82636 -19.22613 -14.43421
 Alpha  occ. eigenvalues --  -10.50416 -10.37639 -10.24675  -1.36648  -1.28424
 Alpha  occ. eigenvalues --   -1.28152  -1.08869  -0.95720  -0.79373  -0.72172
 Alpha  occ. eigenvalues --   -0.66235  -0.63771  -0.63533  -0.59294  -0.51295
 Alpha  occ. eigenvalues --   -0.51173  -0.50211  -0.49557  -0.48542  -0.47175
 Alpha  occ. eigenvalues --   -0.46471  -0.45540  -0.43444  -0.41464  -0.40143
 Alpha  occ. eigenvalues --   -0.32471  -0.29842
 Alpha virt. eigenvalues --   -0.05564   0.05081   0.07992   0.10847   0.11145
 Alpha virt. eigenvalues --    0.12975   0.13767   0.14078   0.17031   0.18337
 Alpha virt. eigenvalues --    0.20744   0.21851   0.22577   0.23401   0.23785
 Alpha virt. eigenvalues --    0.26181   0.27298   0.29890   0.31673   0.32222
 Alpha virt. eigenvalues --    0.35715   0.36611   0.39321   0.40354   0.42652
 Alpha virt. eigenvalues --    0.44323   0.46169   0.47440   0.47939   0.49174
 Alpha virt. eigenvalues --    0.51974   0.52340   0.53894   0.54241   0.57007
 Alpha virt. eigenvalues --    0.58801   0.60283   0.66231   0.68065   0.70582
 Alpha virt. eigenvalues --    0.71399   0.72847   0.74022   0.75545   0.78054
 Alpha virt. eigenvalues --    0.79947   0.81787   0.84596   0.85905   0.89132
 Alpha virt. eigenvalues --    0.92613   0.94003   0.95253   0.97740   0.99626
 Alpha virt. eigenvalues --    1.02166   1.03813   1.05239   1.10749   1.13209
 Alpha virt. eigenvalues --    1.18921   1.23398   1.26826   1.30022   1.36481
 Alpha virt. eigenvalues --    1.38163   1.43860   1.45777   1.50197   1.52012
 Alpha virt. eigenvalues --    1.54439   1.55425   1.55883   1.57556   1.60471
 Alpha virt. eigenvalues --    1.62444   1.68393   1.71038   1.73436   1.81025
 Alpha virt. eigenvalues --    1.85235   1.87033   1.88742   1.89417   1.92106
 Alpha virt. eigenvalues --    1.92939   1.96637   1.98549   1.99694   2.04269
 Alpha virt. eigenvalues --    2.06067   2.06465   2.12080   2.16242   2.17248
 Alpha virt. eigenvalues --    2.19251   2.22386   2.24853   2.26128   2.30095
 Alpha virt. eigenvalues --    2.31414   2.33164   2.36300   2.37049   2.39749
 Alpha virt. eigenvalues --    2.44558   2.46107   2.49677   2.51570   2.58601
 Alpha virt. eigenvalues --    2.59718   2.62149   2.64930   2.66163   2.72158
 Alpha virt. eigenvalues --    2.74704   2.76812   2.79073   2.86125   2.88935
 Alpha virt. eigenvalues --    2.92744   2.94244   2.95749   3.01002   3.04499
 Alpha virt. eigenvalues --    3.05088   3.06093   3.09340   3.10837   3.11432
 Alpha virt. eigenvalues --    3.13442   3.13921   3.16648   3.18497   3.21872
 Alpha virt. eigenvalues --    3.22328   3.26244   3.27024   3.29688   3.33469
 Alpha virt. eigenvalues --    3.35430   3.38348   3.39282   3.42035   3.49644
 Alpha virt. eigenvalues --    3.54251   3.57622   3.58508   3.63385   3.66393
 Alpha virt. eigenvalues --    3.70993   3.77087   3.80321   3.83136   3.84558
 Alpha virt. eigenvalues --    3.88431   3.90342   3.91995   3.95621   3.99139
 Alpha virt. eigenvalues --    4.01912   4.04276   4.07091   4.14767   4.18702
 Alpha virt. eigenvalues --    4.30747   4.39157   4.44757   4.51854   4.60965
 Alpha virt. eigenvalues --    4.66241   4.78494   4.95098   4.96755   4.97974
 Alpha virt. eigenvalues --    5.02579   5.11511   5.14175   5.19224   5.21556
 Alpha virt. eigenvalues --    5.23671   5.29983   5.34916   5.38744   5.45407
 Alpha virt. eigenvalues --    5.56750   5.69114   5.82637   6.00921   6.18995
 Alpha virt. eigenvalues --    6.36933   6.38716   6.50998   6.78984   6.79043
 Alpha virt. eigenvalues --    6.82937   6.83423   6.83801   6.83964   6.84494
 Alpha virt. eigenvalues --    6.84650   6.85197   6.85474   6.91848   6.94823
 Alpha virt. eigenvalues --    6.96644   6.99876   7.00531   7.03151   7.04923
 Alpha virt. eigenvalues --    7.10650   7.29857   7.34117   7.35544   7.51938
 Alpha virt. eigenvalues --    7.53641   7.54495   8.27516   8.29009   8.29306
 Alpha virt. eigenvalues --    8.42959   8.43268   8.49723   8.68851   8.76112
 Alpha virt. eigenvalues --    8.77554   8.82596   8.91299   8.98941   8.99911
 Alpha virt. eigenvalues --    9.04501   9.05935  22.50020  22.69200  22.92399
 Alpha virt. eigenvalues --   32.23700  43.88694  57.23461  57.27183  57.29952
          Condensed to atoms (all electrons):
               1          2          3          4          5          6
     1  C    4.642020   0.593442   0.361791  -0.026261   0.408996  -0.032023
     2  O    0.593442   7.919509  -0.099046   0.003632  -0.036461  -0.004349
     3  N    0.361791  -0.099046   6.500587   0.357944  -0.032386   0.275809
     4  H   -0.026261   0.003632   0.357944   0.439608   0.000433  -0.031735
     5  C    0.408996  -0.036461  -0.032386   0.000433   4.136578   0.001667
     6  C   -0.032023  -0.004349   0.275809  -0.031735   0.001667   4.849722
     7  H   -0.004867   0.003465  -0.050725  -0.005512   0.000140   0.434769
     8  H    0.006823   0.002000  -0.025933  -0.004388   0.000212   0.400127
     9  H   -0.013799   0.009732  -0.026565   0.006961   0.000214   0.407985
    10  F   -0.052939  -0.003502   0.002417   0.000177   0.366527  -0.000042
    11  F   -0.052455   0.000609   0.000904   0.000970   0.349378  -0.001298
    12  F   -0.066345   0.002012   0.004614   0.002046   0.353822   0.000047
               7          8          9         10         11         12
     1  C   -0.004867   0.006823  -0.013799  -0.052939  -0.052455  -0.066345
     2  O    0.003465   0.002000   0.009732  -0.003502   0.000609   0.002012
     3  N   -0.050725  -0.025933  -0.026565   0.002417   0.000904   0.004614
     4  H   -0.005512  -0.004388   0.006961   0.000177   0.000970   0.002046
     5  C    0.000140   0.000212   0.000214   0.366527   0.349378   0.353822
     6  C    0.434769   0.400127   0.407985  -0.000042  -0.001298   0.000047
     7  H    0.526471  -0.024477  -0.030959  -0.000017   0.000345  -0.000002
     8  H   -0.024477   0.509410  -0.017871   0.000004  -0.000020  -0.000012
     9  H   -0.030959  -0.017871   0.513057  -0.000035  -0.000021  -0.000083
    10  F   -0.000017   0.000004  -0.000035   8.925284  -0.047090  -0.045940
    11  F    0.000345  -0.000020  -0.000021  -0.047090   8.938232  -0.046133
    12  F   -0.000002  -0.000012  -0.000083  -0.045940  -0.046133   8.946078
 Mulliken charges:
               1
     1  C    0.235616
     2  O   -0.391043
     3  N   -0.269411
     4  H    0.256124
     5  C    0.450880
     6  C   -0.300679
     7  H    0.151369
     8  H    0.154124
     9  H    0.151383
    10  F   -0.144843
    11  F   -0.143419
    12  F   -0.150102
 Sum of Mulliken charges =  -0.00000
 Mulliken charges with hydrogens summed into heavy atoms:
               1
     1  C    0.235616
     2  O   -0.391043
     3  N   -0.013287
     5  C    0.450880
     6  C    0.156197
    10  F   -0.144843
    11  F   -0.143419
    12  F   -0.150102
 Electronic spatial extent (au):  <R**2>=            940.5236
 Charge=             -0.0000 electrons
 Dipole moment (field-independent basis, Debye):
    X=              2.1443    Y=             -3.4399    Z=              1.1249  Tot=              4.2067
 Quadrupole moment (field-independent basis, Debye-Ang):
   XX=            -39.7987   YY=            -47.5448   ZZ=            -45.2513
   XY=             -3.4105   XZ=              1.9066   YZ=             -1.2262
 Traceless Quadrupole moment (field-independent basis, Debye-Ang):
   XX=              4.3996   YY=             -3.3466   ZZ=             -1.0530
   XY=             -3.4105   XZ=              1.9066   YZ=             -1.2262
 Octapole moment (field-independent basis, Debye-Ang**2):
  XXX=             -3.2877  YYY=            -15.8445  ZZZ=              2.4174  XYY=             -6.3869
  XXY=             -6.2278  XXZ=              3.6736  XZZ=             -7.9634  YZZ=              1.0232
  YYZ=              2.5776  XYZ=             -1.8488
 Hexadecapole moment (field-independent basis, Debye-Ang**3):
 XXXX=           -654.0829 YYYY=           -226.9244 ZZZZ=           -120.5711 XXXY=             -7.1357
 XXXZ=              1.9704 YYYX=            -10.1557 YYYZ=             -1.8891 ZZZX=              4.6765
 ZZZY=             -1.7103 XXYY=           -152.3237 XXZZ=           -142.5604 YYZZ=            -58.1494
 XXYZ=             -2.9275 YYXZ=              0.0931 ZZXY=              2.4024
 N-N= 4.117439520471D+02 E-N=-2.113975577544D+03  KE= 5.435238334357D+02
 No NMR shielding tensors so no spin-rotation constants.
 Leave Link  601 at Wed Aug 28 20:53:40 2024, MaxMem=  8589934592 cpu:               2.2 elap:               0.1
 (Enter /share/apps/g16.b01_avx2/g16/l701.exe)
 ... and contract with generalized density number  0.
 Compute integral first derivatives.
 R6Disp: Adding Grimme-D3 dispersion energy 1st derivatives to the gradient.
   1 Symmetry operations used in ECPInt.
 ECPInt:  NShTT=    5460 NPrTT=   17208 LenC2=    5274 LenP2D=   13007.
 LDataN:  DoStor=T MaxTD1= 7 Len=  274
 D1PCM: PCM CHGder 1st derivatives, ID1Alg=3 FixD1E=F DoIter=F DoCFld=F I1PDM=0.
 GePol: Maximum number of non-zero 1st derivatives   =     228
 Leave Link  701 at Wed Aug 28 20:53:40 2024, MaxMem=  8589934592 cpu:              11.7 elap:               0.5
 (Enter /share/apps/g16.b01_avx2/g16/l702.exe)
 L702 exits ... SP integral derivatives will be done elsewhere.
 Leave Link  702 at Wed Aug 28 20:53:40 2024, MaxMem=  8589934592 cpu:               0.3 elap:               0.0
 (Enter /share/apps/g16.b01_avx2/g16/l703.exe)
 Integral derivatives from FoFJK, PRISM(SPDF).
 Compute integral first derivatives, UseDBF=F ICtDFT=           0.
 Calling FoFJK, ICntrl=      2127 FMM=F ISym2X=0 I1Cent= 0 IOpClX= 0 NMat=1 NMatS=1 NMatT=0.
 FoFJK:  IHMeth= 1 ICntrl=    2127 DoSepK=F KAlg= 0 I1Cent=           0 FoldK=F
 IRaf=         0 NMat=       1 IRICut=       1 DoRegI=T DoRafI=F ISym2E= 0 IDoP0=0 IntGTp=1.
 FoFCou: FMM=F IPFlag=           0 FMFlag=      100000 FMFlg1=         800
         NFxFlg=           0 DoJE=F BraDBF=F KetDBF=F FulRan=T
         wScrn=  0.000000 ICntrl=      2127 IOpCl=  0 I1Cent=           0 NGrid=           0
         NMat0=    1 NMatS0=      1 NMatT0=    0 NMatD0=    1 NMtDS0=    0 NMtDT0=    0
 Symmetry not used in FoFCou.
 Leave Link  703 at Wed Aug 28 20:53:44 2024, MaxMem=  8589934592 cpu:              90.4 elap:               3.8
 (Enter /share/apps/g16.b01_avx2/g16/l716.exe)
 Dipole        = 8.43614257D-01-1.35335463D+00 4.42554831D-01
 ***** Axes restored to original set *****
 -------------------------------------------------------------------
 Center     Atomic                   Forces (Hartrees/Bohr)
 Number     Number              X              Y              Z
 -------------------------------------------------------------------
      1        6           0.024537412   -0.078291037    0.013867356
      2        8           0.029025958    0.072134445    0.000356527
      3        7          -0.070840488   -0.008231704   -0.028609147
      4        1           0.006073838    0.015991302    0.001789881
      5        6           0.001486514   -0.002042825    0.009447477
      6        6          -0.004073653    0.010795352    0.011054708
      7        1          -0.000488490   -0.005077482   -0.015282039
      8        1           0.012557134    0.002054404    0.004366141
      9        1          -0.004125457   -0.009223335    0.005654462
     10        9           0.021397830    0.008559735   -0.009503956
     11        9          -0.003634796    0.000082537    0.019403261
     12        9          -0.011915802   -0.006751391   -0.012544672
 -------------------------------------------------------------------
 Cartesian Forces:  Max     0.078291037 RMS     0.024410830
 Leave Link  716 at Wed Aug 28 20:53:44 2024, MaxMem=  8589934592 cpu:               0.3 elap:               0.0
 (Enter /share/apps/g16.b01_avx2/g16/l103.exe)

 GradGradGradGradGradGradGradGradGradGradGradGradGradGradGradGradGradGrad
 Berny optimization.
 FormGI is forming the generalized inverse of G from B-inverse, IUseBI=4.
 Internal  Forces:  Max     0.077160282 RMS     0.017656581
 Search for a local minimum.
 Step number   1 out of a maximum of   55
 All quantities printed in internal units (Hartrees-Bohrs-Radians)
 RMS Force = .17657D-01 SwitMx=.10000D-02 MixMth= 1
 Mixed Optimization -- RFO/linear search
 Second derivative matrix not updated -- first step.
 ITU=  0
     Eigenvalues ---    0.00237   0.00448   0.00766   0.00766   0.03399
     Eigenvalues ---    0.07537   0.07537   0.11243   0.11243   0.11287
     Eigenvalues ---    0.16000   0.16000   0.16000   0.23464   0.25000
     Eigenvalues ---    0.25000   0.25000   0.25000   0.25000   0.28519
     Eigenvalues ---    0.35740   0.35740   0.37230   0.37230   0.37230
     Eigenvalues ---    0.47688   0.55021   0.55021   0.55021   0.80209
 RFO step:  Lambda=-3.14939923D-02 EMin= 2.36824135D-03
 Linear search not attempted -- first point.
 Iteration  1 RMS(Cart)=  0.09661821 RMS(Int)=  0.00568367
 Iteration  2 RMS(Cart)=  0.00859945 RMS(Int)=  0.00159191
 Iteration  3 RMS(Cart)=  0.00002455 RMS(Int)=  0.00159180
 Iteration  4 RMS(Cart)=  0.00000002 RMS(Int)=  0.00159180
 ITry= 1 IFail=0 DXMaxC= 2.29D-01 DCOld= 1.00D+10 DXMaxT= 3.00D-01 DXLimC= 3.00D+00 Rises=F
 Variable       Old X    -DE/DX   Delta X   Delta X   Delta X     New X
                                 (Linear)    (Quad)   (Total)
    R1        2.37803  -0.07716   0.00000  -0.09256  -0.09256   2.28547
    R2        2.77790  -0.06383   0.00000  -0.16412  -0.16412   2.61377
    R3        2.91018  -0.00502   0.00000  -0.01584  -0.01584   2.89434
    R4        1.88973   0.01421   0.00000   0.02796   0.02796   1.91768
    R5        2.77790   0.00110   0.00000   0.00283   0.00283   2.78073
    R6        2.55113  -0.02395   0.00000  -0.04117  -0.04117   2.50996
    R7        2.55113  -0.01913   0.00000  -0.03288  -0.03288   2.51825
    R8        2.55113  -0.01648   0.00000  -0.02834  -0.02834   2.52280
    R9        2.02201   0.01563   0.00000   0.03871   0.03871   2.06072
   R10        2.02201   0.01325   0.00000   0.03281   0.03281   2.05482
   R11        2.02201   0.01155   0.00000   0.02861   0.02861   2.05061
    A1        2.09440   0.02090   0.00000   0.07426   0.07402   2.16841
    A2        2.09440  -0.00196   0.00000  -0.00696  -0.00715   2.08725
    A3        2.09440  -0.01895   0.00000  -0.06731  -0.06753   2.02687
    A4        1.91063  -0.00527   0.00000   0.01594   0.00881   1.91944
    A5        1.91063   0.02001   0.00000   0.09228   0.08784   1.99847
    A6        1.91063   0.00192   0.00000   0.06009   0.05546   1.96609
    A7        1.91063   0.00913   0.00000   0.03320   0.03255   1.94319
    A8        1.91063   0.00392   0.00000   0.01100   0.01079   1.92142
    A9        1.91063   0.01277   0.00000   0.04749   0.04676   1.95739
   A10        1.91063  -0.00810   0.00000  -0.03303  -0.03315   1.87749
   A11        1.91063  -0.00880   0.00000  -0.02543  -0.02650   1.88414
   A12        1.91063  -0.00891   0.00000  -0.03322  -0.03351   1.87713
   A13        1.91063   0.00662   0.00000   0.03795   0.03794   1.94857
   A14        1.91063  -0.00453   0.00000  -0.02588  -0.02588   1.88475
   A15        1.91063   0.00001   0.00000  -0.00109  -0.00129   1.90934
   A16        1.91063  -0.00036   0.00000   0.00038   0.00057   1.91121
   A17        1.91063  -0.00197   0.00000  -0.00581  -0.00601   1.90462
   A18        1.91063   0.00023   0.00000  -0.00555  -0.00576   1.90488
    D1        2.61799   0.00554   0.00000   0.06761   0.06826   2.68625
    D2        0.52360  -0.00584   0.00000  -0.07225  -0.07176   0.45183
    D3       -0.52360   0.00417   0.00000   0.02951   0.02902  -0.49458
    D4       -2.61799  -0.00721   0.00000  -0.11035  -0.11100  -2.72900
    D5        0.52360  -0.00193   0.00000  -0.02151  -0.02148   0.50212
    D6       -1.57080  -0.00000   0.00000  -0.00813  -0.00766  -1.57846
    D7        2.61799   0.00070   0.00000  -0.00325  -0.00255   2.61544
    D8       -2.61799  -0.00056   0.00000   0.01659   0.01582  -2.60217
    D9        1.57080   0.00137   0.00000   0.02997   0.02964   1.60044
   D10       -0.52360   0.00207   0.00000   0.03485   0.03475  -0.48885
   D11        1.04720   0.00354   0.00000   0.05342   0.05525   1.10244
   D12        3.14159   0.00438   0.00000   0.06127   0.06278  -3.07881
   D13       -1.04720   0.00189   0.00000   0.03796   0.03963  -1.00756
   D14       -1.04720  -0.00343   0.00000  -0.05940  -0.06092  -1.10811
   D15        1.04720  -0.00259   0.00000  -0.05155  -0.05338   0.99382
   D16        3.14159  -0.00509   0.00000  -0.07486  -0.07653   3.06506
         Item               Value     Threshold  Converged?
 Maximum Force            0.077160     0.000450     NO 
 RMS     Force            0.017657     0.000300     NO 
 Maximum Displacement     0.229037     0.001800     NO 
 RMS     Displacement     0.099243     0.001200     NO 
 Predicted change in Energy=-1.776904D-02
 Lowest energy point so far.  Saving SCF results.
 GradGradGradGradGradGradGradGradGradGradGradGradGradGradGradGradGradGrad

 Leave Link  103 at Wed Aug 28 20:53:44 2024, MaxMem=  8589934592 cpu:               0.4 elap:               0.0
 (Enter /share/apps/g16.b01_avx2/g16/l202.exe)
                          Input orientation:                          
 ---------------------------------------------------------------------
 Center     Atomic      Atomic             Coordinates (Angstroms)
 Number     Number       Type             X           Y           Z
 ---------------------------------------------------------------------
      1          6           0        0.623270    0.752774    0.119823
      2          8           0       -0.017291   -0.272212    0.077699
      3          7           0        1.978981    0.812831    0.387300
      4          1           0        2.378513    1.646067   -0.032105
      5          6           0       -0.084850    2.095954   -0.080884
      6          6           0        2.723880   -0.408301    0.041937
      7          1           0        2.689585   -0.611039   -1.028987
      8          1           0        3.756830   -0.270673    0.352476
      9          1           0        2.300800   -1.252067    0.577273
     10          9           0       -1.350488    2.039379    0.318001
     11          9           0       -0.084323    2.425229   -1.372164
     12          9           0        0.513290    3.085062    0.587049
 ---------------------------------------------------------------------
                    Distance matrix (angstroms):
                    1          2          3          4          5
     1  C    0.000000
     2  O    1.209417   0.000000
     3  N    1.383150   2.293092   0.000000
     4  H    1.975331   3.071112   1.014795   0.000000
     5  C    1.531617   2.374431   2.474874   2.504582   0.000000
     6  C    2.401400   2.744780   1.471500   2.084511   3.765015
     7  H    2.729361   2.943932   2.130313   2.486979   3.990514
     8  H    3.304659   3.784110   2.082292   2.391977   4.532905
     9  H    2.653819   2.565782   2.098442   2.962526   4.163381
    10  F    2.364391   2.679293   3.548885   3.765995   1.328213
    11  F    2.350281   3.063133   3.154800   2.910053   1.332602
    12  F    2.381168   3.436894   2.711307   2.435799   1.335006
                    6          7          8          9         10
     6  C    0.000000
     7  H    1.090484   0.000000
     8  H    1.087364   1.778567   0.000000
     9  H    1.085137   1.772609   1.770223   0.000000
    10  F    4.761074   5.016102   5.605553   4.922677   0.000000
    11  F    4.232561   4.126894   4.999673   4.797043   2.146791
    12  F    4.169825   4.583557   4.672958   4.691053   2.153952
                   11         12
    11  F    0.000000
    12  F    2.151985   0.000000
 Stoichiometry    C3H4F3NO
 Framework group  C1[X(C3H4F3NO)]
 Deg. of freedom    30
 Full point group                 C1      NOp   1
 RotChk:  IX=0 Diff= 3.55D-02
 Largest Abelian subgroup         C1      NOp   1
 Largest concise Abelian subgroup C1      NOp   1
                         Standard orientation:                         
 ---------------------------------------------------------------------
 Center     Atomic      Atomic             Coordinates (Angstroms)
 Number     Number       Type             X           Y           Z
 ---------------------------------------------------------------------
      1          6           0        0.457671    0.376563   -0.103567
      2          8           0        0.710911    1.558379   -0.060321
      3          7           0        1.402062   -0.615124   -0.297949
      4          1           0        1.080405   -1.485500    0.112894
      5          6           0       -0.996765   -0.089903    0.009899
      6          6           0        2.762685   -0.254733    0.131162
      7          1           0        2.810510   -0.071686    1.205109
      8          1           0        3.425126   -1.077550   -0.126726
      9          1           0        3.082298    0.638111   -0.396284
     10          9           0       -1.836359    0.827891   -0.455810
     11          9           0       -1.308712   -0.309621    1.286708
     12          9           0       -1.215108   -1.224503   -0.658869
 ---------------------------------------------------------------------
 Rotational constants (GHZ):           3.5922657           1.4770956           1.2991757
 Leave Link  202 at Wed Aug 28 20:53:44 2024, MaxMem=  8589934592 cpu:               0.0 elap:               0.0
 (Enter /share/apps/g16.b01_avx2/g16/l301.exe)
 Standard basis: def2TZVP (5D, 7F)
 Ernie: Thresh=  0.10000D-02 Tol=  0.10000D-05 Strict=F.
 There are   312 symmetry adapted cartesian basis functions of A   symmetry.
 There are   272 symmetry adapted basis functions of A   symmetry.
   272 basis functions,   440 primitive gaussians,   312 cartesian basis functions
    32 alpha electrons       32 beta electrons
       nuclear repulsion energy       418.0179571689 Hartrees.
 IExCor= 1009 DFT=T Ex+Corr=PBE1PBE ExCW=0 ScaHFX=  0.250000
 ScaDFX=  0.750000  0.750000  1.000000  1.000000 ScalE2=  1.000000  1.000000
 IRadAn=  99590 IRanWt=     -1 IRanGd=            0 ICorTp=0 IEmpDi=131
 NAtoms=   12 NActive=   12 NUniq=   12 SFac= 1.00D+00 NAtFMM=   60 NAOKFM=F Big=F
 Integral buffers will be    131072 words long.
 Raffenetti 2 integral format.
 Two-electron integral symmetry is turned on.
 R6Disp:  Grimme-D3 Dispersion energy=       -0.0044708351 Hartrees.
 Nuclear repulsion after empirical dispersion term =      418.0134863338 Hartrees.
 ------------------------------------------------------------------------------
 Polarizable Continuum Model (PCM)
 =================================
 Model                : PCM.
 Atomic radii         : UFF (Universal Force Field).
 Polarization charges : Total charges.
 Charge compensation  : None.
 Solution method      : On-the-fly selection.
 Cavity type          : Scaled VdW (van der Waals Surface) (Alpha=1.100).
 Cavity algorithm     : GePol (No added spheres)
                        Default sphere list used, NSphG=   12.
                        Lebedev-Laikov grids with approx.  5.0 points / Ang**2.
                        Smoothing algorithm: York/Karplus (Gamma=1.0000).
                        Polarization charges: spherical gaussians, with
                                              point-specific exponents (IZeta= 3).
                        Self-potential: point-specific (ISelfS= 7).
                        Self-field    : sphere-specific E.n sum rule (ISelfD= 2).
 1st derivatives      : Analytical E(r).r(x)/FMM algorithm (CHGder, D1EAlg=3).
                        Cavity 1st derivative terms included.
 Solvent              : Water, Eps=  78.355300 Eps(inf)=   1.777849
 ------------------------------------------------------------------------------
 Spheres list:
 ISph  on   Nord     Re0    Alpha      Xe            Ye            Ze
    1   C      1    1.9255  1.100      0.457671      0.376563     -0.103567
    2   O      2    1.7500  1.100      0.710911      1.558379     -0.060321
    3   N      3    1.8300  1.100      1.402062     -0.615124     -0.297949
    4   H      4    1.4430  1.100      1.080405     -1.485500      0.112894
    5   C      5    1.9255  1.100     -0.996765     -0.089903      0.009899
    6   C      6    1.9255  1.100      2.762685     -0.254733      0.131162
    7   H      7    1.4430  1.100      2.810510     -0.071686      1.205109
    8   H      8    1.4430  1.100      3.425126     -1.077550     -0.126726
    9   H      9    1.4430  1.100      3.082298      0.638111     -0.396284
   10   F     10    1.6820  1.100     -1.836359      0.827891     -0.455810
   11   F     11    1.6820  1.100     -1.308712     -0.309621      1.286708
   12   F     12    1.6820  1.100     -1.215108     -1.224503     -0.658869
 ------------------------------------------------------------------------------
 GePol: Number of generator spheres                  =      12
 GePol: Total number of spheres                      =      12
 GePol: Number of exposed spheres                    =      12 (100.00%)
 GePol: Number of points                             =    1215
 GePol: Average weight of points                     =       0.13
 GePol: Minimum weight of points                     =   0.26D-09
 GePol: Maximum weight of points                     =    0.20577
 GePol: Number of points with low weight             =      53
 GePol: Fraction of low-weight points (<1% of avg)   =       4.36%
 GePol: Cavity surface area                          =    158.353 Ang**2
 GePol: Cavity volume                                =    145.809 Ang**3
 Leave Link  301 at Wed Aug 28 20:53:44 2024, MaxMem=  8589934592 cpu:               0.7 elap:               0.0
 (Enter /share/apps/g16.b01_avx2/g16/l302.exe)
 NPDir=0 NMtPBC=     1 NCelOv=     1 NCel=       1 NClECP=     1 NCelD=      1
         NCelK=      1 NCelE2=     1 NClLst=     1 CellRange=     0.0.
 One-electron integrals computed using PRISM.
 One-electron integral symmetry used in STVInt
   1 Symmetry operations used in ECPInt.
 ECPInt:  NShTT=    5460 NPrTT=   17208 LenC2=    5279 LenP2D=   13059.
 LDataN:  DoStor=T MaxTD1= 6 Len=  172
 NBasis=   272 RedAO= T EigKep=  4.67D-04  NBF=   272
 NBsUse=   272 1.00D-06 EigRej= -1.00D+00 NBFU=   272
 Precomputing XC quadrature grid using
 IXCGrd= 4 IRadAn=       99590 IRanWt=          -1 IRanGd=           0 AccXCQ= 0.00D+00.
 Generated NRdTot=       0 NPtTot=           0 NUsed=           0 NTot=          32
 NSgBfM=   311   311   311   311   311 MxSgAt=    12 MxSgA2=    12.
 Leave Link  302 at Wed Aug 28 20:53:44 2024, MaxMem=  8589934592 cpu:               3.3 elap:               0.1
 (Enter /share/apps/g16.b01_avx2/g16/l303.exe)
 DipDrv:  MaxL=1.
 Leave Link  303 at Wed Aug 28 20:53:44 2024, MaxMem=  8589934592 cpu:               0.5 elap:               0.0
 (Enter /share/apps/g16.b01_avx2/g16/l401.exe)
 Initial guess from the checkpoint file:  "/scratch/Gau-1844818.chk"
 B after Tr=    -0.000000   -0.000000   -0.000000
         Rot=    0.999996    0.002732    0.000948   -0.000630 Ang=   0.34 deg.
 Guess basis will be translated and rotated to current coordinates.
 JPrj=2 DoOrth=T DoCkMO=T.
 Generating alternative initial guess.
 ExpMin= 9.52D-02 ExpMax= 3.55D+04 ExpMxC= 1.21D+03 IAcc=4 IRadAn=    199590 AccDes= 0.00D+00
 Harris functional with IExCor= 1009 and IRadAn=  199590 diagonalized for initial guess.
 HarFok:  IExCor= 1009 AccDes= 0.00D+00 IRadAn=    199590 IDoV= 1 UseB2=F ITyADJ=14
 ICtDFT=  3500011 ScaDFX=  1.000000  1.000000  1.000000  1.000000
 FoFCou: FMM=F IPFlag=           0 FMFlag=      100000 FMFlg1=           0
         NFxFlg=           0 DoJE=T BraDBF=F KetDBF=T FulRan=T
         wScrn=  0.000000 ICntrl=       500 IOpCl=  0 I1Cent=   200000004 NGrid=           0
         NMat0=    1 NMatS0=      1 NMatT0=    0 NMatD0=    1 NMtDS0=    0 NMtDT0=    0
 Petite list used in FoFCou.
 Harris En= -545.971199714899    
 Leave Link  401 at Wed Aug 28 20:53:45 2024, MaxMem=  8589934592 cpu:              16.0 elap:               0.7
 (Enter /share/apps/g16.b01_avx2/g16/l502.exe)
 Keep R1 ints in memory in canonical form, NReq=716777100.
 FoFCou: FMM=F IPFlag=           0 FMFlag=           0 FMFlg1=           0
         NFxFlg=           0 DoJE=F BraDBF=F KetDBF=F FulRan=T
         wScrn=  0.000000 ICntrl=       600 IOpCl=  0 I1Cent=           0 NGrid=           0
         NMat0=    1 NMatS0=  37128 NMatT0=    0 NMatD0=    1 NMtDS0=    0 NMtDT0=    0
 Symmetry not used in FoFCou.
 Two-electron integral symmetry not used.
 Closed shell SCF:
 Using DIIS extrapolation, IDIIS=  1040.
 NGot=  8589934592 LenX=  7900466874 LenY=  7900369089
 Requested convergence on RMS density matrix=1.00D-08 within 128 cycles.
 Requested convergence on MAX density matrix=1.00D-06.
 Requested convergence on             energy=1.00D-06.
 No special actions if energy rises.

 Cycle   1  Pass 1  IDiag  1:
 Inv3:  Mode=1 IEnd=     4428675.
 Iteration    1 A*A^-1 deviation from unit magnitude is 2.78D-15 for    363.
 Iteration    1 A*A^-1 deviation from orthogonality  is 1.89D-15 for   1071    265.
 Iteration    1 A^-1*A deviation from unit magnitude is 2.78D-15 for    363.
 Iteration    1 A^-1*A deviation from orthogonality  is 9.21D-15 for   1058   1028.
 E= -545.911000688187    
 DIIS: error= 4.88D-03 at cycle   1 NSaved=   1.
 NSaved= 1 IEnMin= 1 EnMin= -545.911000688187     IErMin= 1 ErrMin= 4.88D-03
 ErrMax= 4.88D-03  0.00D+00 EMaxC= 1.00D-01 BMatC= 1.41D-02 BMatP= 1.41D-02
 IDIUse=3 WtCom= 9.51D-01 WtEn= 4.88D-02
 Coeff-Com:  0.100D+01
 Coeff-En:   0.100D+01
 Coeff:      0.100D+01
 Gap=     0.708 Goal=   None    Shift=    0.000
 GapD=    0.708 DampG=2.000 DampE=1.000 DampFc=2.0000 IDamp=-1.
 RMSDP=4.52D-04 MaxDP=1.20D-02              OVMax= 3.74D-02

 Cycle   2  Pass 1  IDiag  1:
 E= -545.927195243781     Delta-E=       -0.016194555594 Rises=F Damp=F
 DIIS: error= 1.38D-03 at cycle   2 NSaved=   2.
 NSaved= 2 IEnMin= 2 EnMin= -545.927195243781     IErMin= 2 ErrMin= 1.38D-03
 ErrMax= 1.38D-03  0.00D+00 EMaxC= 1.00D-01 BMatC= 9.63D-04 BMatP= 1.41D-02
 IDIUse=3 WtCom= 9.86D-01 WtEn= 1.38D-02
 Coeff-Com:  0.604D-01 0.940D+00
 Coeff-En:   0.000D+00 0.100D+01
 Coeff:      0.596D-01 0.940D+00
 Gap=     0.271 Goal=   None    Shift=    0.000
 RMSDP=1.63D-04 MaxDP=5.24D-03 DE=-1.62D-02 OVMax= 1.41D-02

 Cycle   3  Pass 1  IDiag  1:
 E= -545.927294679226     Delta-E=       -0.000099435445 Rises=F Damp=F
 DIIS: error= 1.56D-03 at cycle   3 NSaved=   3.
 NSaved= 3 IEnMin= 3 EnMin= -545.927294679226     IErMin= 2 ErrMin= 1.38D-03
 ErrMax= 1.56D-03  0.00D+00 EMaxC= 1.00D-01 BMatC= 9.15D-04 BMatP= 9.63D-04
 IDIUse=3 WtCom= 9.84D-01 WtEn= 1.56D-02
 Coeff-Com: -0.278D-01 0.501D+00 0.527D+00
 Coeff-En:   0.000D+00 0.466D+00 0.534D+00
 Coeff:     -0.273D-01 0.501D+00 0.527D+00
 Gap=     0.269 Goal=   None    Shift=    0.000
 RMSDP=9.03D-05 MaxDP=3.89D-03 DE=-9.94D-05 OVMax= 1.10D-02

 Cycle   4  Pass 1  IDiag  1:
 E= -545.927980482683     Delta-E=       -0.000685803456 Rises=F Damp=F
 DIIS: error= 3.56D-04 at cycle   4 NSaved=   4.
 NSaved= 4 IEnMin= 4 EnMin= -545.927980482683     IErMin= 4 ErrMin= 3.56D-04
 ErrMax= 3.56D-04  0.00D+00 EMaxC= 1.00D-01 BMatC= 8.26D-05 BMatP= 9.15D-04
 IDIUse=3 WtCom= 9.96D-01 WtEn= 3.56D-03
 Coeff-Com: -0.193D-01 0.236D+00 0.313D+00 0.470D+00
 Coeff-En:   0.000D+00 0.000D+00 0.000D+00 0.100D+01
 Coeff:     -0.192D-01 0.235D+00 0.312D+00 0.472D+00
 Gap=     0.268 Goal=   None    Shift=    0.000
 RMSDP=2.13D-05 MaxDP=1.16D-03 DE=-6.86D-04 OVMax= 2.48D-03

 Cycle   5  Pass 1  IDiag  1:
 E= -545.928035407247     Delta-E=       -0.000054924565 Rises=F Damp=F
 DIIS: error= 1.02D-04 at cycle   5 NSaved=   5.
 NSaved= 5 IEnMin= 5 EnMin= -545.928035407247     IErMin= 5 ErrMin= 1.02D-04
 ErrMax= 1.02D-04  0.00D+00 EMaxC= 1.00D-01 BMatC= 6.50D-06 BMatP= 8.26D-05
 IDIUse=3 WtCom= 9.99D-01 WtEn= 1.02D-03
 Coeff-Com: -0.456D-02 0.389D-01 0.806D-01 0.250D+00 0.635D+00
 Coeff-En:   0.000D+00 0.000D+00 0.000D+00 0.342D-01 0.966D+00
 Coeff:     -0.456D-02 0.388D-01 0.805D-01 0.250D+00 0.636D+00
 Gap=     0.268 Goal=   None    Shift=    0.000
 RMSDP=5.94D-06 MaxDP=2.73D-04 DE=-5.49D-05 OVMax= 6.94D-04

 Cycle   6  Pass 1  IDiag  1:
 E= -545.928040281524     Delta-E=       -0.000004874277 Rises=F Damp=F
 DIIS: error= 4.33D-05 at cycle   6 NSaved=   6.
 NSaved= 6 IEnMin= 6 EnMin= -545.928040281524     IErMin= 6 ErrMin= 4.33D-05
 ErrMax= 4.33D-05  0.00D+00 EMaxC= 1.00D-01 BMatC= 6.67D-07 BMatP= 6.50D-06
 IDIUse=1 WtCom= 1.00D+00 WtEn= 0.00D+00
 Coeff-Com: -0.757D-03-0.699D-03 0.166D-01 0.914D-01 0.336D+00 0.557D+00
 Coeff:     -0.757D-03-0.699D-03 0.166D-01 0.914D-01 0.336D+00 0.557D+00
 Gap=     0.268 Goal=   None    Shift=    0.000
 RMSDP=1.74D-06 MaxDP=6.97D-05 DE=-4.87D-06 OVMax= 1.42D-04

 Cycle   7  Pass 1  IDiag  1:
 E= -545.928040664530     Delta-E=       -0.000000383006 Rises=F Damp=F
 DIIS: error= 7.28D-06 at cycle   7 NSaved=   7.
 NSaved= 7 IEnMin= 7 EnMin= -545.928040664530     IErMin= 7 ErrMin= 7.28D-06
 ErrMax= 7.28D-06  0.00D+00 EMaxC= 1.00D-01 BMatC= 3.19D-08 BMatP= 6.67D-07
 IDIUse=1 WtCom= 1.00D+00 WtEn= 0.00D+00
 Coeff-Com:  0.950D-04-0.444D-02-0.572D-03 0.149D-01 0.920D-01 0.234D+00
 Coeff-Com:  0.664D+00
 Coeff:      0.950D-04-0.444D-02-0.572D-03 0.149D-01 0.920D-01 0.234D+00
 Coeff:      0.664D+00
 Gap=     0.268 Goal=   None    Shift=    0.000
 RMSDP=4.83D-07 MaxDP=1.72D-05 DE=-3.83D-07 OVMax= 4.46D-05

 Cycle   8  Pass 1  IDiag  1:
 E= -545.928040686079     Delta-E=       -0.000000021549 Rises=F Damp=F
 DIIS: error= 3.01D-06 at cycle   8 NSaved=   8.
 NSaved= 8 IEnMin= 8 EnMin= -545.928040686079     IErMin= 8 ErrMin= 3.01D-06
 ErrMax= 3.01D-06  0.00D+00 EMaxC= 1.00D-01 BMatC= 3.10D-09 BMatP= 3.19D-08
 IDIUse=1 WtCom= 1.00D+00 WtEn= 0.00D+00
 Coeff-Com:  0.102D-03-0.178D-02-0.176D-02-0.317D-02 0.738D-02 0.391D-01
 Coeff-Com:  0.275D+00 0.685D+00
 Coeff:      0.102D-03-0.178D-02-0.176D-02-0.317D-02 0.738D-02 0.391D-01
 Coeff:      0.275D+00 0.685D+00
 Gap=     0.268 Goal=   None    Shift=    0.000
 RMSDP=1.88D-07 MaxDP=4.59D-06 DE=-2.15D-08 OVMax= 2.63D-05

 Cycle   9  Pass 1  IDiag  1:
 E= -545.928040688909     Delta-E=       -0.000000002830 Rises=F Damp=F
 DIIS: error= 5.34D-07 at cycle   9 NSaved=   9.
 NSaved= 9 IEnMin= 9 EnMin= -545.928040688909     IErMin= 9 ErrMin= 5.34D-07
 ErrMax= 5.34D-07  0.00D+00 EMaxC= 1.00D-01 BMatC= 2.24D-10 BMatP= 3.10D-09
 IDIUse=1 WtCom= 1.00D+00 WtEn= 0.00D+00
 Coeff-Com:  0.229D-04-0.970D-04-0.450D-03-0.266D-02-0.629D-02-0.108D-01
 Coeff-Com:  0.178D-01 0.217D+00 0.785D+00
 Coeff:      0.229D-04-0.970D-04-0.450D-03-0.266D-02-0.629D-02-0.108D-01
 Coeff:      0.178D-01 0.217D+00 0.785D+00
 Gap=     0.268 Goal=   None    Shift=    0.000
 RMSDP=6.41D-08 MaxDP=2.04D-06 DE=-2.83D-09 OVMax= 8.91D-06

 Cycle  10  Pass 1  IDiag  1:
 E= -545.928040689131     Delta-E=       -0.000000000222 Rises=F Damp=F
 DIIS: error= 2.92D-07 at cycle  10 NSaved=  10.
 NSaved=10 IEnMin=10 EnMin= -545.928040689131     IErMin=10 ErrMin= 2.92D-07
 ErrMax= 2.92D-07  0.00D+00 EMaxC= 1.00D-01 BMatC= 5.47D-11 BMatP= 2.24D-10
 IDIUse=1 WtCom= 1.00D+00 WtEn= 0.00D+00
 Coeff-Com:  0.859D-06 0.160D-03-0.264D-05-0.951D-03-0.377D-02-0.928D-02
 Coeff-Com: -0.222D-01 0.327D-01 0.402D+00 0.602D+00
 Coeff:      0.859D-06 0.160D-03-0.264D-05-0.951D-03-0.377D-02-0.928D-02
 Coeff:     -0.222D-01 0.327D-01 0.402D+00 0.602D+00
 Gap=     0.268 Goal=   None    Shift=    0.000
 RMSDP=2.08D-08 MaxDP=9.22D-07 DE=-2.22D-10 OVMax= 3.85D-06

 Cycle  11  Pass 1  IDiag  1:
 E= -545.928040689179     Delta-E=       -0.000000000047 Rises=F Damp=F
 DIIS: error= 6.59D-08 at cycle  11 NSaved=  11.
 NSaved=11 IEnMin=11 EnMin= -545.928040689179     IErMin=11 ErrMin= 6.59D-08
 ErrMax= 6.59D-08  0.00D+00 EMaxC= 1.00D-01 BMatC= 2.41D-12 BMatP= 5.47D-11
 IDIUse=1 WtCom= 1.00D+00 WtEn= 0.00D+00
 Coeff-Com: -0.245D-05 0.654D-04 0.472D-04-0.643D-04-0.704D-03-0.212D-02
 Coeff-Com: -0.973D-02-0.130D-01 0.376D-01 0.188D+00 0.800D+00
 Coeff:     -0.245D-05 0.654D-04 0.472D-04-0.643D-04-0.704D-03-0.212D-02
 Coeff:     -0.973D-02-0.130D-01 0.376D-01 0.188D+00 0.800D+00
 Gap=     0.268 Goal=   None    Shift=    0.000
 RMSDP=6.91D-09 MaxDP=2.47D-07 DE=-4.73D-11 OVMax= 1.17D-06

 Error on total polarization charges =  0.00694
 SCF Done:  E(RPBE1PBE) =  -545.928040689     A.U. after   11 cycles
            NFock= 11  Conv=0.69D-08     -V/T= 2.0037
 KE= 5.439207364584D+02 PE=-2.126941185690D+03 EE= 6.190789222087D+02
 Leave Link  502 at Wed Aug 28 20:53:56 2024, MaxMem=  8589934592 cpu:             171.2 elap:              10.6
 (Enter /share/apps/g16.b01_avx2/g16/l701.exe)
 ... and contract with generalized density number  0.
 Compute integral first derivatives.
 R6Disp: Adding Grimme-D3 dispersion energy 1st derivatives to the gradient.
   1 Symmetry operations used in ECPInt.
 ECPInt:  NShTT=    5460 NPrTT=   17208 LenC2=    5279 LenP2D=   13059.
 LDataN:  DoStor=T MaxTD1= 7 Len=  274
 D1PCM: PCM CHGder 1st derivatives, ID1Alg=3 FixD1E=F DoIter=F DoCFld=F I1PDM=0.
 GePol: Maximum number of non-zero 1st derivatives   =     225
 Leave Link  701 at Wed Aug 28 20:53:56 2024, MaxMem=  8589934592 cpu:              11.4 elap:               0.5
 (Enter /share/apps/g16.b01_avx2/g16/l702.exe)
 L702 exits ... SP integral derivatives will be done elsewhere.
 Leave Link  702 at Wed Aug 28 20:53:56 2024, MaxMem=  8589934592 cpu:               0.3 elap:               0.0
 (Enter /share/apps/g16.b01_avx2/g16/l703.exe)
 Integral derivatives from FoFJK, PRISM(SPDF).
 Compute integral first derivatives, UseDBF=F ICtDFT=           0.
 Calling FoFJK, ICntrl=      2127 FMM=F ISym2X=0 I1Cent= 0 IOpClX= 0 NMat=1 NMatS=1 NMatT=0.
 FoFJK:  IHMeth= 1 ICntrl=    2127 DoSepK=F KAlg= 0 I1Cent=           0 FoldK=F
 IRaf=         0 NMat=       1 IRICut=       1 DoRegI=T DoRafI=F ISym2E= 0 IDoP0=0 IntGTp=1.
 FoFCou: FMM=F IPFlag=           0 FMFlag=      100000 FMFlg1=         800
         NFxFlg=           0 DoJE=F BraDBF=F KetDBF=F FulRan=T
         wScrn=  0.000000 ICntrl=      2127 IOpCl=  0 I1Cent=           0 NGrid=           0
         NMat0=    1 NMatS0=      1 NMatT0=    0 NMatD0=    1 NMtDS0=    0 NMtDT0=    0
 Symmetry not used in FoFCou.
 Leave Link  703 at Wed Aug 28 20:54:00 2024, MaxMem=  8589934592 cpu:              92.3 elap:               3.9
 (Enter /share/apps/g16.b01_avx2/g16/l716.exe)
 Dipole        = 1.07952387D+00-1.41035042D+00 3.44552650D-01
 ***** Axes restored to original set *****
 -------------------------------------------------------------------
 Center     Atomic                   Forces (Hartrees/Bohr)
 Number     Number              X              Y              Z
 -------------------------------------------------------------------
      1        6           0.019747869   -0.015907397    0.014004240
      2        8          -0.002416363    0.003864525   -0.002338632
      3        7          -0.022177534   -0.001751049   -0.028938465
      4        1           0.004793715    0.001423412    0.008568334
      5        6          -0.003710289    0.007536197    0.003294837
      6        6           0.000893460    0.006856697    0.008369004
      7        1          -0.000768119    0.000079330   -0.001157526
      8        1           0.000736123   -0.000462841    0.000155910
      9        1          -0.000787407   -0.000791424    0.001068001
     10        9           0.001007667   -0.001880584    0.000910883
     11        9           0.001212947   -0.000420632   -0.004843431
     12        9           0.001467932    0.001453766    0.000906844
 -------------------------------------------------------------------
 Cartesian Forces:  Max     0.028938465 RMS     0.008393290
 Leave Link  716 at Wed Aug 28 20:54:00 2024, MaxMem=  8589934592 cpu:               0.3 elap:               0.0
 (Enter /share/apps/g16.b01_avx2/g16/l103.exe)

 GradGradGradGradGradGradGradGradGradGradGradGradGradGradGradGradGradGrad
 Berny optimization.
 Using GEDIIS/GDIIS optimizer.
 FormGI is forming the generalized inverse of G from B-inverse, IUseBI=4.
 Internal  Forces:  Max     0.019036435 RMS     0.004321985
 Search for a local minimum.
 Step number   2 out of a maximum of   55
 All quantities printed in internal units (Hartrees-Bohrs-Radians)
 RMS Force = .43220D-02 SwitMx=.10000D-02 MixMth= 1
 Mixed Optimization -- RFO/linear search
 Update second derivatives using D2CorX and points    1    2
 DE= -1.98D-02 DEPred=-1.78D-02 R= 1.11D+00
 TightC=F SS=  1.41D+00  RLast= 3.46D-01 DXNew= 5.0454D-01 1.0382D+00
 Trust test= 1.11D+00 RLast= 3.46D-01 DXMaxT set to 5.05D-01
 ITU=  1  0
 Use linear search instead of GDIIS.
     Eigenvalues ---    0.00237   0.00470   0.00766   0.00767   0.02398
     Eigenvalues ---    0.07307   0.07694   0.10507   0.10888   0.12499
     Eigenvalues ---    0.15996   0.16000   0.16144   0.21703   0.23777
     Eigenvalues ---    0.24990   0.25000   0.25000   0.25983   0.28705
     Eigenvalues ---    0.32078   0.36143   0.37228   0.37230   0.37654
     Eigenvalues ---    0.47881   0.54923   0.55021   0.57025   0.83989
 RFO step:  Lambda=-5.69684284D-03 EMin= 2.36794326D-03
 Quartic linear search produced a step of  0.23208.
 Iteration  1 RMS(Cart)=  0.05775349 RMS(Int)=  0.00463732
 Iteration  2 RMS(Cart)=  0.00621675 RMS(Int)=  0.00335920
 Iteration  3 RMS(Cart)=  0.00001055 RMS(Int)=  0.00335919
 Iteration  4 RMS(Cart)=  0.00000004 RMS(Int)=  0.00335919
 ITry= 1 IFail=0 DXMaxC= 1.83D-01 DCOld= 1.00D+10 DXMaxT= 5.05D-01 DXLimC= 3.00D+00 Rises=F
 Variable       Old X    -DE/DX   Delta X   Delta X   Delta X     New X
                                 (Linear)    (Quad)   (Total)
    R1        2.28547  -0.00191  -0.02148   0.00818  -0.01330   2.27217
    R2        2.61377  -0.01904  -0.03809  -0.04062  -0.07871   2.53507
    R3        2.89434   0.00584  -0.00368   0.02698   0.02331   2.91764
    R4        1.91768  -0.00048   0.00649  -0.00493   0.00156   1.91924
    R5        2.78073  -0.00666   0.00066  -0.02284  -0.02218   2.75855
    R6        2.50996  -0.00060  -0.00955   0.00396  -0.00559   2.50437
    R7        2.51825   0.00459  -0.00763   0.01432   0.00669   2.52494
    R8        2.52280   0.00219  -0.00658   0.00845   0.00188   2.52467
    R9        2.06072   0.00115   0.00898  -0.00177   0.00722   2.06793
   R10        2.05482   0.00069   0.00762  -0.00243   0.00519   2.06001
   R11        2.05061   0.00145   0.00664   0.00063   0.00727   2.05788
    A1        2.16841   0.00883   0.01718   0.03156   0.04701   2.21542
    A2        2.08725  -0.00140  -0.00166  -0.00437  -0.00758   2.07967
    A3        2.02687  -0.00742  -0.01567  -0.02337  -0.04067   1.98620
    A4        1.91944   0.00210   0.00204   0.09024   0.07977   1.99921
    A5        1.99847   0.00712   0.02038   0.05249   0.06171   2.06018
    A6        1.96609  -0.00102   0.01287   0.04337   0.04287   2.00897
    A7        1.94319  -0.00310   0.00756  -0.02022  -0.01284   1.93034
    A8        1.92142  -0.00284   0.00250  -0.01506  -0.01263   1.90879
    A9        1.95739   0.00056   0.01085  -0.00481   0.00590   1.96329
   A10        1.87749   0.00289  -0.00769   0.01920   0.01140   1.88888
   A11        1.88414   0.00157  -0.00615   0.01160   0.00523   1.88937
   A12        1.87713   0.00124  -0.00778   0.01180   0.00397   1.88110
   A13        1.94857  -0.00097   0.00880  -0.01539  -0.00662   1.94196
   A14        1.88475   0.00118  -0.00601   0.01578   0.00978   1.89453
   A15        1.90934  -0.00083  -0.00030  -0.00710  -0.00747   1.90187
   A16        1.91121   0.00026   0.00013   0.00408   0.00426   1.91547
   A17        1.90462   0.00048  -0.00139   0.00090  -0.00060   1.90402
   A18        1.90488  -0.00012  -0.00134   0.00213   0.00076   1.90564
    D1        2.68625   0.00247   0.01584   0.01379   0.03128   2.71753
    D2        0.45183  -0.00377  -0.01665  -0.16641  -0.18663   0.26521
    D3       -0.49458   0.00275   0.00673   0.12742   0.13771  -0.35687
    D4       -2.72900  -0.00349  -0.02576  -0.05278  -0.08019  -2.80919
    D5        0.50212   0.00040  -0.00499   0.08269   0.07694   0.57905
    D6       -1.57846   0.00062  -0.00178   0.08143   0.07890  -1.49956
    D7        2.61544   0.00061  -0.00059   0.07989   0.07863   2.69407
    D8       -2.60217  -0.00012   0.00367  -0.02622  -0.02186  -2.62403
    D9        1.60044   0.00010   0.00688  -0.02748  -0.01990   1.58054
   D10       -0.48885   0.00009   0.00806  -0.02902  -0.02016  -0.50901
   D11        1.10244   0.00356   0.01282   0.09082   0.10469   1.20713
   D12       -3.07881   0.00407   0.01457   0.09675   0.11227  -2.96654
   D13       -1.00756   0.00414   0.00920   0.10445   0.11460  -0.89296
   D14       -1.10811  -0.00459  -0.01414  -0.11828  -0.13334  -1.24145
   D15        0.99382  -0.00409  -0.01239  -0.11235  -0.12576   0.86806
   D16        3.06506  -0.00402  -0.01776  -0.10465  -0.12343   2.94164
         Item               Value     Threshold  Converged?
 Maximum Force            0.019036     0.000450     NO 
 RMS     Force            0.004322     0.000300     NO 
 Maximum Displacement     0.183036     0.001800     NO 
 RMS     Displacement     0.057270     0.001200     NO 
 Predicted change in Energy=-5.113012D-03
 Lowest energy point so far.  Saving SCF results.
 GradGradGradGradGradGradGradGradGradGradGradGradGradGradGradGradGradGrad

 Leave Link  103 at Wed Aug 28 20:54:00 2024, MaxMem=  8589934592 cpu:               0.3 elap:               0.0
 (Enter /share/apps/g16.b01_avx2/g16/l202.exe)
                          Input orientation:                          
 ---------------------------------------------------------------------
 Center     Atomic      Atomic             Coordinates (Angstroms)
 Number     Number       Type             X           Y           Z
 ---------------------------------------------------------------------
      1          6           0        0.607685    0.723545    0.110283
      2          8           0       -0.052908   -0.276161    0.010671
      3          7           0        1.934942    0.798091    0.290442
      4          1           0        2.355771    1.666086   -0.027317
[...]
    D3       -0.04980  -0.00000   0.00000   0.00007   0.00007  -0.04973
    D4       -3.13967  -0.00000   0.00000   0.00052   0.00052  -3.13915
    D5        1.05218   0.00000   0.00000  -0.00124  -0.00124   1.05094
    D6       -1.01807  -0.00000   0.00000  -0.00105  -0.00105  -1.01912
    D7       -3.12470  -0.00000   0.00000  -0.00114  -0.00114  -3.12585
    D8       -2.07906   0.00000   0.00000  -0.00121  -0.00121  -2.08027
    D9        2.13387  -0.00000   0.00000  -0.00102  -0.00102   2.13285
   D10        0.02724  -0.00000   0.00000  -0.00111  -0.00111   0.02613
   D11        1.52259   0.00000   0.00000   0.09160   0.09160   1.61419
   D12       -2.65933   0.00000   0.00000   0.09261   0.09261  -2.56672
   D13       -0.57249   0.00000   0.00000   0.09251   0.09251  -0.47999
   D14       -1.56729   0.00000   0.00000   0.09205   0.09205  -1.47524
   D15        0.53398   0.00000   0.00000   0.09305   0.09306   0.62703
   D16        2.62081   0.00000   0.00000   0.09296   0.09295   2.71377
         Item               Value     Threshold  Converged?
 Maximum Force            0.000016     0.000450     YES
 RMS     Force            0.000004     0.000300     YES
 Maximum Displacement     0.132149     0.001800     NO 
 RMS     Displacement     0.040442     0.001200     NO 
 Predicted change in Energy=-7.503537D-07
                           ----------------------------
                           ! Non-Optimized Parameters !
                           ! (Angstroms and Degrees)  !
 --------------------------                            --------------------------
 ! Name  Definition              Value          Derivative Info.                !
 --------------------------------------------------------------------------------
 ! R1    R(1,2)                  1.2166         -DE/DX =    0.0                 !
 ! R2    R(1,3)                  1.3285         -DE/DX =    0.0                 !
 ! R3    R(1,5)                  1.5453         -DE/DX =    0.0                 !
 ! R4    R(3,4)                  1.007          -DE/DX =    0.0                 !
 ! R5    R(3,6)                  1.4451         -DE/DX =    0.0                 !
 ! R6    R(5,10)                 1.3332         -DE/DX =    0.0                 !
 ! R7    R(5,11)                 1.3329         -DE/DX =    0.0                 !
 ! R8    R(5,12)                 1.3384         -DE/DX =    0.0                 !
 ! R9    R(6,7)                  1.0926         -DE/DX =    0.0                 !
 ! R10   R(6,8)                  1.0886         -DE/DX =    0.0                 !
 ! R11   R(6,9)                  1.0885         -DE/DX =    0.0                 !
 ! A1    A(2,1,3)              126.914          -DE/DX =    0.0                 !
 ! A2    A(2,1,5)              117.8762         -DE/DX =    0.0                 !
 ! A3    A(3,1,5)              115.2067         -DE/DX =    0.0                 !
 ! A4    A(1,3,4)              118.8669         -DE/DX =    0.0                 !
 ! A5    A(1,3,6)              122.2363         -DE/DX =    0.0                 !
 ! A6    A(4,3,6)              118.8308         -DE/DX =    0.0                 !
 ! A7    A(1,5,10)             109.8989         -DE/DX =    0.0                 !
 ! A8    A(1,5,11)             109.9442         -DE/DX =    0.0                 !
 ! A9    A(1,5,12)             113.5096         -DE/DX =    0.0                 !
 ! A10   A(10,5,11)            107.8843         -DE/DX =    0.0                 !
 ! A11   A(10,5,12)            107.7149         -DE/DX =    0.0                 !
 ! A12   A(11,5,12)            107.7043         -DE/DX =    0.0                 !
 ! A13   A(3,6,7)              111.1447         -DE/DX =    0.0                 !
 ! A14   A(3,6,8)              109.2017         -DE/DX =    0.0                 !
 ! A15   A(3,6,9)              109.0263         -DE/DX =    0.0                 !
 ! A16   A(7,6,8)              109.1321         -DE/DX =    0.0                 !
 ! A17   A(7,6,9)              108.8504         -DE/DX =    0.0                 !
 ! A18   A(8,6,9)              109.465          -DE/DX =    0.0                 !
 ! D1    D(2,1,3,4)            177.808          -DE/DX =    0.0                 !
 ! D2    D(2,1,3,6)              0.7977         -DE/DX =    0.0                 !
 ! D3    D(5,1,3,4)             -2.8495         -DE/DX =    0.0                 !
 ! D4    D(5,1,3,6)           -179.8598         -DE/DX =    0.0                 !
 ! D5    D(2,1,5,10)            60.2146         -DE/DX =    0.0                 !
 ! D6    D(2,1,5,11)           -58.3911         -DE/DX =    0.0                 !
 ! D7    D(2,1,5,12)          -179.0978         -DE/DX =    0.0                 !
 ! D8    D(3,1,5,10)          -119.1907         -DE/DX =    0.0                 !
 ! D9    D(3,1,5,11)           122.2035         -DE/DX =    0.0                 !
 ! D10   D(3,1,5,12)             1.4969         -DE/DX =    0.0                 !
 ! D11   D(1,3,6,7)             92.4864         -DE/DX =    0.0                 !
 ! D12   D(1,3,6,8)           -147.0622         -DE/DX =    0.0                 !
 ! D13   D(1,3,6,9)            -27.5012         -DE/DX =    0.0                 !
 ! D14   D(4,3,6,7)            -84.5249         -DE/DX =    0.0                 !
 ! D15   D(4,3,6,8)             35.9264         -DE/DX =    0.0                 !
 ! D16   D(4,3,6,9)            155.4875         -DE/DX =    0.0                 !
 --------------------------------------------------------------------------------
 GradGradGradGradGradGradGradGradGradGradGradGradGradGradGradGradGradGrad

 Leave Link  103 at Wed Aug 28 20:58:29 2024, MaxMem=  8589934592 cpu:               0.3 elap:               0.0
 (Enter /share/apps/g16.b01_avx2/g16/l9999.exe)

 ----------------------------------------------------------------------

 Electric dipole moment (input orientation):
 (Debye = 10**-18 statcoulomb cm , SI units = C m)
                  (au)            (Debye)         (10**-30 SI)
   Tot        0.223387D+01      0.567793D+01      0.189395D+02
   x          0.217775D+01      0.553529D+01      0.184637D+02
   y          0.333957D+00      0.848833D+00      0.283140D+01
   z          0.368858D+00      0.937544D+00      0.312731D+01

 Dipole polarizability, Alpha (input orientation).
 (esu units = cm**3 , SI units = C**2 m**2 J**-1)
 Alpha(0;0):
               (au)            (10**-24 esu)      (10**-40 SI)
   iso        0.592966D+02      0.878684D+01      0.977668D+01
   aniso      0.209975D+02      0.311150D+01      0.346201D+01
   xx         0.708495D+02      0.104988D+02      0.116815D+02
   yx        -0.846898D+00     -0.125497D+00     -0.139635D+00
   yy         0.593166D+02      0.878981D+01      0.977998D+01
   zx         0.317106D+01      0.469903D+00      0.522837D+00
   zy         0.157776D+01      0.233800D+00      0.260137D+00
   zz         0.477236D+02      0.707190D+01      0.786855D+01

 ----------------------------------------------------------------------

 Dipole orientation:
     6          0.26999794          1.26170195          1.32328864
     8          0.66655175         -0.34934091         -0.26818847
     7          0.30758513          0.95459476          3.81422064
     1          0.00682133          2.46346303          4.93353956
     6         -0.37609249          3.95853177          0.40925602
     6          0.88394088         -1.45322546          4.96729071
     1          2.91884021         -1.68756905          5.22653420
     1         -0.04622052         -1.56075666          6.79824723
     1          0.19174628         -2.96707706          3.75754023
     9         -2.47455973          3.91230418         -0.98442385
     9          1.48923223          4.84801618         -1.03056889
     9         -0.74158316          5.60178037          2.29669900

 Electric dipole moment (dipole orientation):
 (Debye = 10**-18 statcoulomb cm , SI units = C m)
                  (au)            (Debye)         (10**-30 SI)
   Tot        0.223387D+01      0.567793D+01      0.189395D+02
   x          0.000000D+00      0.000000D+00      0.000000D+00
   y          0.000000D+00      0.000000D+00      0.000000D+00
   z          0.223387D+01      0.567793D+01      0.189395D+02

 Dipole polarizability, Alpha (dipole orientation).
 (esu units = cm**3 , SI units = C**2 m**2 J**-1)
 Alpha(0;0):
               (au)            (10**-24 esu)      (10**-40 SI)
   iso        0.592966D+02      0.878684D+01      0.977668D+01
   aniso      0.209975D+02      0.311150D+01      0.346201D+01
   xx         0.479748D+02      0.710914D+01      0.790998D+01
   yx        -0.330159D+01     -0.489245D+00     -0.544359D+00
   yy         0.591017D+02      0.875796D+01      0.974455D+01
   zx         0.838476D+00      0.124249D+00      0.138246D+00
   zy        -0.222153D+01     -0.329197D+00     -0.366281D+00
   zz         0.708132D+02      0.104934D+02      0.116755D+02

 ----------------------------------------------------------------------
 1\1\GINC-RIPPER-24-13\Freq\RPBE1PBE\def2TZVP\C3H4F3N1O1\HILLEL\28-Aug-
 2024\0\\#P Geom=AllCheck Guess=TCheck SCRF=Check GenChk RPBE1PBE/def2T
 ZVP Freq\\cf3-methylacetamide product\\0,1\C,0.6254786171,0.7416706285
 ,-0.1234746282\O,-0.0502219793,-0.2466547748,-0.3396599456\N,1.9345020
 044,0.7768443041,0.0990828722\H,2.3827297945,1.6684451589,0.2326785761
 \C,-0.0875789051,2.1118541613,-0.0833811123\C,2.7449432985,-0.41980929
 09,0.0929872606\H,3.0926555739,-0.6556271799,-0.915591295\H,3.60590282
 78,-0.2692030375,0.7413338191\H,2.1535513366,-1.2554237606,0.464134305
 4\F,-1.0081553311,2.1165102676,0.8810623059\F,-0.7073149343,2.33614362
 68,-1.2418466956\F,0.7417031769,3.1382529965,0.1400923675\\Version=ES6
 4L-G16RevB.01\State=1-A\HF=-545.9375415\RMSD=1.865e-09\RMSF=7.074e-06\
 ZeroPoint=0.0796391\Thermal=0.0878686\Dipole=2.1777505,0.3339568,0.368
 858\DipoleDeriv=2.072118,0.3230519,0.3249269,0.7373841,1.075208,0.2121
 092,0.3805816,0.1541797,0.2891795,-1.2087417,-0.1908643,-0.1334234,-0.
 7344966,-1.1329476,-0.1862308,-0.1958845,-0.1047457,-0.5119956,-1.4231
 316,-0.0817301,-0.1421539,0.0903604,-0.5511234,-0.0247334,-0.2402909,-
 0.0413402,-0.4841154,0.2540117,0.0583155,-0.0143699,0.0882719,0.260773
 5,0.0095781,0.01133,0.0178395,0.3612893,1.9861292,0.1113647,0.0024061,
 0.0295706,1.7276689,-0.0257088,0.0017133,-0.0174626,2.0212618,0.308618
 1,-0.1843732,-0.0450447,-0.3247607,0.3878867,0.013614,0.0510567,0.0204
 226,0.2716088,0.0209978,0.0581292,0.0271096,0.1196866,0.0356639,0.0101
 838,0.0869819,-0.0585106,-0.0935983,-0.0297991,0.0309,-0.0766967,0.007
 2643,0.0586924,-0.0531152,-0.1130127,-0.0257359,0.0404493,0.0229109,-0
 .0848175,0.0645664,0.0272361,-0.0072161,0.0371786,0.0249781,0.0472417,
 0.0855119,-0.7758703,0.0748043,0.4001264,0.1234203,-0.4238483,-0.04877
 63,0.3861724,-0.0025853,-0.7256288,-0.566505,0.1363683,-0.3341238,0.16
 56252,-0.4547829,0.1694944,-0.3125633,0.1127571,-0.8992556,-0.6607379,
 -0.2511488,-0.0733229,-0.3295621,-0.9759753,-0.1135937,-0.0810627,-0.1
 020604,-0.354707\Polar=70.8494889,-0.8468983,59.3165891,3.171061,1.577
 7582,47.723575\Quadrupole=3.8950637,-2.9904697,-0.9045939,-3.446701,0.
 3587035,-0.8714046\PG=C01 [X(C3H4F3N1O1)]\NImag=0\\0.81448488,0.163408
 17,0.79398847,0.11174477,0.08608859,0.25149114,-0.26007655,-0.24750603
 ,-0.05587850,0.31362935,-0.24047827,-0.49700466,-0.08356302,0.31629728
 ,0.55073656,-0.05497754,-0.08467786,-0.09417202,0.08027402,0.10656443,
 0.06019309,-0.38755148,0.02853883,-0.05055557,-0.06742761,-0.05701461,
 -0.02135446,0.78692773,0.01110750,-0.14138023,-0.00646101,-0.06661543,
 -0.00590851,-0.01362780,0.07096039,0.77812629,-0.04839531,-0.00093043,
 -0.05914009,-0.02283421,-0.01483026,0.01501371,0.10832015,0.07688113,0
 .10037479,-0.00892068,-0.03569780,-0.00265235,-0.00628194,0.00267442,-
 0.00216611,-0.14541728,-0.15059746,-0.03207164,0.15168343,-0.00654739,
 0.00240248,-0.00014779,0.00604981,0.00475364,0.00082521,-0.15395245,-0
 .37377035,-0.05227222,0.15977419,0.38495048,-0.00215587,-0.00593317,-0
 .00926388,-0.00228049,0.00051051,0.00850501,-0.03132800,-0.05160069,-0
 .01416393,0.03364231,0.05277653,0.01995044,-0.10322840,0.05803593,0.00
 142407,0.00896129,-0.03149321,-0.00392348,-0.01586559,0.02651655,0.000
 01185,-0.00622540,0.00191445,-0.00050416,0.54149686,0.06491551,-0.1455
 0473,0.00246918,-0.01023450,-0.03406758,-0.00676792,0.00078949,0.00561
 818,-0.00138147,-0.00197278,0.00460226,0.00041589,-0.03665967,0.564548
 70,0.00307566,0.00069172,-0.07093678,-0.00214492,-0.00981327,0.0093353
 9,-0.00466138,0.00434399,0.00819577,-0.00102689,0.00078347,-0.00132458
 ,0.00633015,0.00408215,0.48101805,-0.03146862,0.03389325,-0.00233912,0
 .00612350,0.00258841,0.00140577,-0.14279167,0.06224994,-0.00398476,0.0
 1305035,-0.01051351,0.00163359,-0.00341233,-0.00371530,-0.00169529,0.5
 8184685,0.02302246,0.00723225,0.00388799,-0.00790205,-0.00508453,-0.00
 105422,0.05447389,-0.20215562,-0.00938727,0.01932438,-0.01525493,0.002
 30149,-0.00149075,-0.00215200,-0.00135741,0.05547078,0.52660898,-0.008
 46925,0.00171203,-0.00185440,0.00099516,0.00518148,-0.00357885,-0.0008
 8531,-0.00524695,-0.06203564,0.00255707,-0.00148604,-0.00268315,-0.003
 16510,-0.00044618,0.00726664,0.01032796,0.00328502,0.57373066,0.003860
 39,0.00361038,0.00252993,-0.00044719,-0.00215869,-0.00036628,-0.013235
 90,0.01150112,0.01638730,-0.00058574,-0.00004422,0.00040115,0.00073310
 ,-0.00078900,-0.00102818,-0.07096840,0.01300707,0.07242206,0.07668925,
 -0.00615134,-0.00323922,-0.00239129,0.00262382,0.00270254,-0.00006234,
 0.02027283,-0.01537250,-0.02582536,0.00105104,-0.00047965,-0.00105641,
 -0.00106201,0.00091505,0.00136462,0.01212140,-0.05430807,-0.04304611,-
 0.02430833,0.06533390,-0.00194093,0.00064624,0.00060214,0.00079690,-0.
 00012196,-0.00014521,0.00100407,-0.00369056,0.00923651,0.00055393,0.00
 014074,-0.00032930,0.00011379,-0.00002230,-0.00062975,0.07511913,-0.04
 626109,-0.28215764,-0.08357010,0.05320991,0.29846226,0.00135344,0.0030
 1641,-0.00077534,-0.00054239,0.00025422,-0.00018819,-0.01963003,-0.000
 36419,-0.00949668,0.00059402,-0.00027404,0.00039076,-0.00016239,-0.001
 12798,0.00006561,-0.21770749,-0.03213846,-0.12985921,0.00945618,0.0009
 9564,0.00626718,0.23805693,-0.00204953,-0.00765631,0.00066414,-0.00032
 197,0.00298665,0.00033491,0.03440123,-0.00067806,0.01939631,-0.0001572
 4,0.00143408,0.00027246,0.00047500,0.00152982,-0.00092579,-0.04166519,
 -0.05609501,-0.03074555,-0.00476145,-0.00068805,-0.00195368,0.02985118
 ,0.06165642,0.00203755,0.00063814,0.00028804,0.00015034,-0.00087676,-0
 .00005709,0.00224158,0.00067915,0.00191035,-0.00023668,0.00043196,0.00
 057142,0.00030749,-0.00020019,0.00016565,-0.13446566,-0.02546327,-0.14
 901799,-0.02339783,-0.00509423,-0.01589483,0.14329827,0.02922204,0.154
 09367,0.00183488,0.00248930,-0.00046849,-0.00152166,-0.00116152,-0.000
 12735,0.01213377,0.02030589,-0.00823706,-0.00210840,0.00258509,-0.0006
 5813,0.00044003,-0.00013366,0.00107255,-0.13596611,-0.12176840,0.05592
 512,-0.00480011,-0.00642374,0.00160542,-0.01084539,-0.01655072,0.01018
 285,0.14120624,-0.00540273,-0.00204707,-0.00138903,0.00072910,0.003023
 90,0.00025205,-0.01028282,-0.03134986,0.00717048,0.00339935,-0.0017790
 8,0.00256136,-0.00068464,-0.00021681,-0.00032762,-0.11152342,-0.202725
 71,0.07090096,0.00316182,0.00619589,-0.00192103,-0.00116771,-0.0013238
 4,0.00058610,0.12095943,0.23027431,0.00122176,0.00206523,0.00139137,-0
 .00018606,-0.00157815,-0.00075607,-0.00312382,-0.00222255,0.00071461,0
 .00040402,-0.00067440,-0.00022496,0.00008743,-0.00022761,0.00004120,0.
 05373845,0.07392496,-0.08067417,0.01682343,0.02267946,-0.00904187,-0.0
 0969835,-0.01613311,0.00795378,-0.05926037,-0.07779357,0.08060199,-0.0
 2102643,-0.00896614,0.02819020,0.00373195,0.00615449,-0.00302224,-0.00
 278533,0.00641389,-0.00045909,0.00119387,-0.00014490,0.00086566,-0.179
 11311,0.03000405,0.10169224,-0.00036071,-0.00109548,-0.00181559,-0.000
 06512,0.00009348,0.00014684,-0.00037395,0.00079999,-0.00008532,-0.0002
 5500,0.00025645,-0.00003674,0.23161396,0.02149405,0.00592902,-0.021427
 61,0.00128477,-0.00063612,0.00113528,0.00249648,-0.00504015,0.00024370
 ,0.00009635,-0.00074808,-0.00047669,0.01958775,-0.08253508,-0.01750652
 ,0.00068061,0.00114095,0.00145308,0.00001384,-0.00004958,-0.00011169,0
 .00033136,-0.00063156,0.00004345,0.00007229,-0.00007040,0.00001718,0.0
 0591002,0.07325331,0.01806797,0.00462444,-0.00835422,-0.00164916,-0.00
 195329,0.00196264,0.00253151,-0.00545335,-0.00035967,-0.00080828,0.000
 03800,-0.00029614,0.09852223,-0.02316318,-0.16053231,0.00047318,0.0011
 1123,0.00060634,0.00012556,-0.00018127,-0.00007892,0.00027732,-0.00045
 779,-0.00000980,0.00002613,-0.00012059,-0.00000569,-0.16351149,-0.0007
 0086,0.24941109,-0.00774440,-0.00189835,-0.02989127,0.00196174,0.00454
 196,0.00415844,-0.00253265,0.00494290,0.00052726,0.00105958,-0.0000258
 6,-0.00044692,-0.12579682,0.03956720,-0.08612681,-0.00044650,-0.001052
 41,0.00182757,-0.00054708,0.00065546,-0.00016673,-0.00022913,0.0001405
 2,-0.00002323,0.00013024,0.00006880,-0.00002564,0.02148245,-0.00684202
 ,0.02164824,0.14635505,0.01747278,0.00124245,0.03033287,0.00160802,-0.
 00071227,-0.00117775,0.00331274,-0.00638908,-0.00015206,-0.00018471,-0
 .00078164,0.00031390,0.03022551,-0.09631213,0.04338528,0.00089578,0.00
 147465,-0.00129106,0.00052560,-0.00058688,0.00011903,0.00036896,-0.000
 28138,-0.00002121,-0.00015863,0.00008001,0.00001107,-0.00511503,0.0135
 6154,0.00860236,-0.01965179,0.08217458,-0.01452357,-0.00282226,-0.0169
 1705,0.00196751,0.00261987,0.00379175,-0.00263487,0.00601343,0.0000155
 5,0.00117329,-0.00017562,-0.00012212,-0.08524772,0.05233967,-0.2006762
 5,-0.00040717,-0.00115024,0.00048870,-0.00037083,0.00042572,-0.0000623
 9,-0.00030797,0.00031210,0.00001612,0.00004585,0.00008826,-0.00001001,
 0.00878847,0.01127272,-0.08719562,0.13336447,-0.04569783,0.32715157,-0
 .00151703,0.00107604,-0.00132833,0.00188950,-0.00020446,0.00028743,-0.
 00182396,0.00357890,0.00023218,0.00195820,0.00117886,0.00044010,-0.117
 82724,-0.08064336,-0.01555276,0.00210114,0.00014897,0.00013952,-0.0000
 8939,0.00013175,0.00007050,0.00003021,-0.00016182,-0.00000937,-0.00024
 849,0.00048637,0.00005589,-0.05404258,-0.04512549,0.02429679,-0.033692
 50,-0.02929921,-0.04184747,0.20326214,-0.04079120,-0.01396245,-0.00806
 302,0.00398718,-0.02078962,-0.00174396,0.00600400,-0.00170011,0.001087
 46,0.00229026,-0.00532921,-0.00008519,-0.06536491,-0.21642569,-0.02472
 062,-0.00048274,0.00131903,-0.00027069,0.00024186,-0.00042343,-0.00003
 362,0.00025463,-0.00025277,0.00005483,-0.00021532,-0.00006133,-0.00006
 851,-0.03431081,-0.00417385,0.01765430,-0.02044641,0.00653015,-0.02322
 583,0.14883345,0.25526928,-0.00568525,-0.00210268,0.00686574,0.0007894
 0,-0.00213958,-0.00009234,0.00044608,0.00038522,0.00023803,0.00063133,
 -0.00023983,-0.00061879,-0.01395655,-0.02709805,-0.07192302,0.00019391
 ,0.00016282,-0.00009050,0.00004378,-0.00002270,0.00003901,0.00002659,0
 .00001396,-0.00001930,-0.00010651,-0.00000738,0.00000982,0.02924706,0.
 02605795,0.00485231,-0.04484539,-0.03442460,-0.02648025,0.03321553,0.0
 3941486,0.08721929\\0.00000488,-0.00000846,-0.00000329,-0.00000119,-0.
 00000034,-0.00000347,0.00000758,0.00000362,-0.00000263,-0.00000279,0.0
 0000007,0.00000905,-0.00000240,0.00000078,-0.00001515,0.00000412,0.000
 00410,-0.00000527,0.00000020,0.00000917,-0.00000335,0.00000322,0.00000
 912,-0.00000374,0.00000604,0.00000387,-0.00000156,-0.00001466,-0.00001
 291,0.00001205,0.00000341,-0.00000634,0.00001742,-0.00000842,-0.000002
 69,-0.00000006\\\@


 "I COULD HAVE DONE IT IN A MUCH MORE COMPLICATED WAY"
 SAID THE RED QUEEN, IMMENSELY PROUD.

                                      -- LEWIS CARROLL
 Job cpu time:       0 days  0 hours 43 minutes  5.2 seconds.
 Elapsed time:       0 days  0 hours  1 minutes 48.2 seconds.
 File lengths (MBytes):  RWF=    117 Int=      0 D2E=      0 Chk=     11 Scr=      1
 Normal termination of Gaussian 16 at Wed Aug 28 20:58:29 2024.
