 Entering Gaussian System, Link 0=g16
 Input=input.com
 Output=input.log
 Initial command:
 /share/apps/g16.b01_avx2/g16/l1.exe "/scratch/Gau-118778.inp" -scrdir="/scratch/"
 Entering Link 1 = /share/apps/g16.b01_avx2/g16/l1.exe PID=    118780.
  
 Copyright (c) 1988-2017, Gaussian, Inc.  All Rights Reserved.
  
 This is part of the Gaussian(R) 16 program.  It is based on
 the Gaussian(R) 09 system (copyright 2009, Gaussian, Inc.),
 the Gaussian(R) 03 system (copyright 2003, Gaussian, Inc.),
 the Gaussian(R) 98 system (copyright 1998, Gaussian, Inc.),
 the Gaussian(R) 94 system (copyright 1995, Gaussian, Inc.),
 the Gaussian 92(TM) system (copyright 1992, Gaussian, Inc.),
 the Gaussian 90(TM) system (copyright 1990, Gaussian, Inc.),
 the Gaussian 88(TM) system (copyright 1988, Gaussian, Inc.),
 the Gaussian 86(TM) system (copyright 1986, Carnegie Mellon
 University), and the Gaussian 82(TM) system (copyright 1983,
 Carnegie Mellon University). Gaussian is a federally registered
 trademark of Gaussian, Inc.
  
 This software contains proprietary and confidential information,
 including trade secrets, belonging to Gaussian, Inc.
  
 This software is provided under written license and may be
 used, copied, transmitted, or stored only in accord with that
 written license.
  
 The following legend is applicable only to US Government
 contracts under FAR:
  
                    RESTRICTED RIGHTS LEGEND
  
 Use, reproduction and disclosure by the US Government is
 subject to restrictions as set forth in subparagraphs (a)
 and (c) of the Commercial Computer Software - Restricted
 Rights clause in FAR 52.227-19.
  
 Gaussian, Inc.
 340 Quinnipiac St., Bldg. 40, Wallingford CT 06492
  
  
 ---------------------------------------------------------------
 Warning -- This program may not be used in any manner that
 competes with the business of Gaussian, Inc. or will provide
 assistance to any competitor of Gaussian, Inc.  The licensee
 of this program is prohibited from giving any competitor of
 Gaussian, Inc. access to this program.  By using this program,
 the user acknowledges that Gaussian, Inc. is engaged in the
 business of creating and licensing software in the field of
 computational chemistry and represents and warrants to the
 licensee that it is not a competitor of Gaussian, Inc. and that
 it will not use this program in any manner prohibited above.
 ---------------------------------------------------------------
  

 Cite this work as:
 Gaussian 16, Revision B.01,
 M. J. Frisch, G. W. Trucks, H. B. Schlegel, G. E. Scuseria, 
 M. A. Robb, J. R. Cheeseman, G. Scalmani, V. Barone, 
 G. A. Petersson, H. Nakatsuji, X. Li, M. Caricato, A. V. Marenich, 
 J. Bloino, B. G. Janesko, R. Gomperts, B. Mennucci, H. P. Hratchian, 
 J. V. Ortiz, A. F. Izmaylov, J. L. Sonnenberg, D. Williams-Young, 
 F. Ding, F. Lipparini, F. Egidi, J. Goings, B. Peng, A. Petrone, 
 T. Henderson, D. Ranasinghe, V. G. Zakrzewski, J. Gao, N. Rega, 
 G. Zheng, W. Liang, M. Hada, M. Ehara, K. Toyota, R. Fukuda, 
 J. Hasegawa, M. Ishida, T. Nakajima, Y. Honda, O. Kitao, H. Nakai, 
 T. Vreven, K. Throssell, J. A. Montgomery, Jr., J. E. Peralta, 
 F. Ogliaro, M. J. Bearpark, J. J. Heyd, E. N. Brothers, K. N. Kudin, 
 V. N. Staroverov, T. A. Keith, R. Kobayashi, J. Normand, 
 K. Raghavachari, A. P. Rendell, J. C. Burant, S. S. Iyengar, 
 J. Tomasi, M. Cossi, J. M. Millam, M. Klene, C. Adamo, R. Cammi, 
 J. W. Ochterski, R. L. Martin, K. Morokuma, O. Farkas, 
 J. B. Foresman, and D. J. Fox, Gaussian, Inc., Wallingford CT, 2016.
 
 ******************************************
 Gaussian 16:  ES64L-G16RevB.01 20-Dec-2017
                29-Aug-2024 
 ******************************************
 %nproc=24
 Will use up to   24 processors via shared memory.
 %mem=64GB
 ----------------------------------------------------------------------
 #P PBE1PBE/def2TZVP opt freq EmpiricalDispersion=GD3 Int=(grid=99590) 
 scrf=(iefpcm, solvent=water)
 ----------------------------------------------------------------------
 1/18=20,19=15,26=6,38=1/1,3;
 2/9=110,12=2,17=6,18=5,40=1/2;
 3/5=44,7=101,11=2,25=1,30=1,70=2201,71=1,72=1,74=-13,75=99590,124=31/1,2,3;
 4//1;
 5/5=2,38=5,53=1/2;
 6/7=2,8=2,9=2,10=2,28=1/1;
 7//1,2,3,16;
 1/18=20,19=15,26=6/3(2);
 2/9=110/2;
 99//99;
 2/9=110/2;
 3/5=44,7=101,11=2,25=1,30=1,70=2205,71=1,72=1,74=-13,75=99590,124=31/1,2,3;
 4/5=5,16=3,69=1/1;
 5/5=2,38=5,53=1/2;
 7//1,2,3,16;
 1/18=20,19=15,26=6/3(-5);
 2/9=110/2;
 6/7=2,8=2,9=2,10=2,19=2,28=1/1;
 99/9=1/99;
 Leave Link    1 at Thu Aug 29 15:27:57 2024, MaxMem=  8589934592 cpu:               0.9 elap:               0.0
 (Enter /share/apps/g16.b01_avx2/g16/l101.exe)
 -----------------------
 pfp_ester-ch2F reactant
 -----------------------
 Symbolic Z-matrix:
 Charge =  0 Multiplicity = 1
 O                     0.73523  -0.16783  -3.08985 
 C                     1.19232   0.83369  -2.48026 
 C                     2.46011   1.5379   -2.99833 
 O                     0.53451   1.31786  -1.30648 
 C                    -0.53677   0.7228   -0.86871 
 C                    -0.42797  -0.32773   0.05242 
 C                    -1.79925   1.13248  -1.3184 
 C                    -1.58166  -0.96857   0.52387 
 C                    -2.95293   0.49164  -0.84695 
 C                    -2.84414  -0.55888   0.07418 
 F                     0.78821  -0.72239   0.48561 
 F                    -1.90406   2.14448  -2.20574 
 F                    -1.47685  -1.98056   1.41121 
 F                    -4.16911   0.88631  -1.28015 
 F                    -3.95551  -1.17621   0.52834 
 F                     3.54962   0.97799  -2.4309 
 H                     2.51759   1.43222  -4.06154 
 H                     2.41996   2.57666  -2.74481 
 
 ITRead=  0  0  0  0  0  0  0  0  0  0  0  0  0  0  0  0  0  0
 MicOpt= -1 -1 -1 -1 -1 -1 -1 -1 -1 -1 -1 -1 -1 -1 -1 -1 -1 -1
 NAtoms=     18 NQM=       18 NQMF=       0 NMMI=      0 NMMIF=      0
                NMic=       0 NMicF=      0.
                    Isotopes and Nuclear Properties:
 (Nuclear quadrupole moments (NQMom) in fm**2, nuclear magnetic moments (NMagM)
  in nuclear magnetons)

  Atom         1           2           3           4           5           6           7           8           9          10
 IAtWgt=          16          12          12          16          12          12          12          12          12          12
 AtmWgt=  15.9949146  12.0000000  12.0000000  15.9949146  12.0000000  12.0000000  12.0000000  12.0000000  12.0000000  12.0000000
 NucSpn=           0           0           0           0           0           0           0           0           0           0
 AtZEff=  -0.0000000  -0.0000000  -0.0000000  -0.0000000  -0.0000000  -0.0000000  -0.0000000  -0.0000000  -0.0000000  -0.0000000
 NQMom=    0.0000000   0.0000000   0.0000000   0.0000000   0.0000000   0.0000000   0.0000000   0.0000000   0.0000000   0.0000000
 NMagM=    0.0000000   0.0000000   0.0000000   0.0000000   0.0000000   0.0000000   0.0000000   0.0000000   0.0000000   0.0000000
 AtZNuc=   8.0000000   6.0000000   6.0000000   8.0000000   6.0000000   6.0000000   6.0000000   6.0000000   6.0000000   6.0000000

  Atom        11          12          13          14          15          16          17          18
 IAtWgt=          19          19          19          19          19          19           1           1
 AtmWgt=  18.9984032  18.9984032  18.9984032  18.9984032  18.9984032  18.9984032   1.0078250   1.0078250
 NucSpn=           1           1           1           1           1           1           1           1
 AtZEff=  -0.0000000  -0.0000000  -0.0000000  -0.0000000  -0.0000000  -0.0000000  -0.0000000  -0.0000000
 NQMom=    0.0000000   0.0000000   0.0000000   0.0000000   0.0000000   0.0000000   0.0000000   0.0000000
 NMagM=    2.6288670   2.6288670   2.6288670   2.6288670   2.6288670   2.6288670   2.7928460   2.7928460
 AtZNuc=   9.0000000   9.0000000   9.0000000   9.0000000   9.0000000   9.0000000   1.0000000   1.0000000
 Leave Link  101 at Thu Aug 29 15:27:58 2024, MaxMem=  8589934592 cpu:               7.5 elap:               0.3
 (Enter /share/apps/g16.b01_avx2/g16/l103.exe)

 GradGradGradGradGradGradGradGradGradGradGradGradGradGradGradGradGradGrad
 Berny optimization.
 Initialization pass.
                           ----------------------------
                           !    Initial Parameters    !
                           ! (Angstroms and Degrees)  !
 --------------------------                            --------------------------
 ! Name  Definition              Value          Derivative Info.                !
 --------------------------------------------------------------------------------
 ! R1    R(1,2)                  1.2584         estimate D2E/DX2                !
 ! R2    R(2,3)                  1.54           estimate D2E/DX2                !
 ! R3    R(2,4)                  1.43           estimate D2E/DX2                !
 ! R4    R(3,16)                 1.35           estimate D2E/DX2                !
 ! R5    R(3,17)                 1.07           estimate D2E/DX2                !
 ! R6    R(3,18)                 1.07           estimate D2E/DX2                !
 ! R7    R(4,5)                  1.3013         estimate D2E/DX2                !
 ! R8    R(5,6)                  1.4014         estimate D2E/DX2                !
 ! R9    R(5,7)                  1.4014         estimate D2E/DX2                !
 ! R10   R(6,8)                  1.4014         estimate D2E/DX2                !
 ! R11   R(6,11)                 1.35           estimate D2E/DX2                !
 ! R12   R(7,9)                  1.4014         estimate D2E/DX2                !
 ! R13   R(7,12)                 1.35           estimate D2E/DX2                !
 ! R14   R(8,10)                 1.4014         estimate D2E/DX2                !
 ! R15   R(8,13)                 1.35           estimate D2E/DX2                !
 ! R16   R(9,10)                 1.4014         estimate D2E/DX2                !
 ! R17   R(9,14)                 1.35           estimate D2E/DX2                !
 ! R18   R(10,15)                1.35           estimate D2E/DX2                !
 ! A1    A(1,2,3)              120.0            estimate D2E/DX2                !
 ! A2    A(1,2,4)              120.0            estimate D2E/DX2                !
 ! A3    A(3,2,4)              120.0            estimate D2E/DX2                !
 ! A4    A(2,3,16)             109.4712         estimate D2E/DX2                !
 ! A5    A(2,3,17)             109.4712         estimate D2E/DX2                !
 ! A6    A(2,3,18)             109.4712         estimate D2E/DX2                !
 ! A7    A(16,3,17)            109.4712         estimate D2E/DX2                !
 ! A8    A(16,3,18)            109.4712         estimate D2E/DX2                !
 ! A9    A(17,3,18)            109.4712         estimate D2E/DX2                !
 ! A10   A(2,4,5)              120.0            estimate D2E/DX2                !
 ! A11   A(4,5,6)              120.0            estimate D2E/DX2                !
 ! A12   A(4,5,7)              120.0            estimate D2E/DX2                !
 ! A13   A(6,5,7)              120.0            estimate D2E/DX2                !
 ! A14   A(5,6,8)              120.0            estimate D2E/DX2                !
 ! A15   A(5,6,11)             120.0            estimate D2E/DX2                !
 ! A16   A(8,6,11)             120.0            estimate D2E/DX2                !
 ! A17   A(5,7,9)              120.0            estimate D2E/DX2                !
 ! A18   A(5,7,12)             120.0            estimate D2E/DX2                !
 ! A19   A(9,7,12)             120.0            estimate D2E/DX2                !
 ! A20   A(6,8,10)             120.0            estimate D2E/DX2                !
 ! A21   A(6,8,13)             120.0            estimate D2E/DX2                !
 ! A22   A(10,8,13)            120.0            estimate D2E/DX2                !
 ! A23   A(7,9,10)             120.0            estimate D2E/DX2                !
 ! A24   A(7,9,14)             120.0            estimate D2E/DX2                !
 ! A25   A(10,9,14)            120.0            estimate D2E/DX2                !
 ! A26   A(8,10,9)             120.0            estimate D2E/DX2                !
 ! A27   A(8,10,15)            120.0            estimate D2E/DX2                !
 ! A28   A(9,10,15)            120.0            estimate D2E/DX2                !
 ! D1    D(1,2,3,16)           -90.0            estimate D2E/DX2                !
 ! D2    D(1,2,3,17)            30.0            estimate D2E/DX2                !
 ! D3    D(1,2,3,18)           150.0            estimate D2E/DX2                !
 ! D4    D(4,2,3,16)            90.0            estimate D2E/DX2                !
 ! D5    D(4,2,3,17)          -150.0            estimate D2E/DX2                !
 ! D6    D(4,2,3,18)           -30.0            estimate D2E/DX2                !
 ! D7    D(1,2,4,5)              0.0001         estimate D2E/DX2                !
 ! D8    D(3,2,4,5)           -179.9999         estimate D2E/DX2                !
 ! D9    D(2,4,5,6)             90.0            estimate D2E/DX2                !
 ! D10   D(2,4,5,7)            -89.9999         estimate D2E/DX2                !
 ! D11   D(4,5,6,8)            179.9998         estimate D2E/DX2                !
 ! D12   D(4,5,6,11)            -0.0001         estimate D2E/DX2                !
 ! D13   D(7,5,6,8)             -0.0002         estimate D2E/DX2                !
 ! D14   D(7,5,6,11)           179.9998         estimate D2E/DX2                !
 ! D15   D(4,5,7,9)           -180.0            estimate D2E/DX2                !
 ! D16   D(4,5,7,12)            -0.0001         estimate D2E/DX2                !
 ! D17   D(6,5,7,9)              0.0001         estimate D2E/DX2                !
 ! D18   D(6,5,7,12)           180.0            estimate D2E/DX2                !
 ! D19   D(5,6,8,10)             0.0002         estimate D2E/DX2                !
 ! D20   D(5,6,8,13)          -179.9998         estimate D2E/DX2                !
 ! D21   D(11,6,8,10)         -179.9999         estimate D2E/DX2                !
 ! D22   D(11,6,8,13)            0.0002         estimate D2E/DX2                !
 ! D23   D(5,7,9,10)             0.0001         estimate D2E/DX2                !
 ! D24   D(5,7,9,14)           180.0            estimate D2E/DX2                !
 ! D25   D(12,7,9,10)         -179.9998         estimate D2E/DX2                !
 ! D26   D(12,7,9,14)            0.0001         estimate D2E/DX2                !
 ! D27   D(6,8,10,9)             0.0            estimate D2E/DX2                !
 ! D28   D(6,8,10,15)         -179.9999         estimate D2E/DX2                !
 ! D29   D(13,8,10,9)         -180.0            estimate D2E/DX2                !
 ! D30   D(13,8,10,15)           0.0001         estimate D2E/DX2                !
 ! D31   D(7,9,10,8)            -0.0002         estimate D2E/DX2                !
 ! D32   D(7,9,10,15)          179.9998         estimate D2E/DX2                !
 ! D33   D(14,9,10,8)          180.0            estimate D2E/DX2                !
 ! D34   D(14,9,10,15)          -0.0001         estimate D2E/DX2                !
 --------------------------------------------------------------------------------
 Trust Radius=3.00D-01 FncErr=5.00D-06 GrdErr=5.00D-06 EigMax=2.50D+02 EigMin=1.00D-04
 Number of steps in this run=     90 maximum allowed number of steps=    108.
 GradGradGradGradGradGradGradGradGradGradGradGradGradGradGradGradGradGrad

 Leave Link  103 at Thu Aug 29 15:27:58 2024, MaxMem=  8589934592 cpu:               0.2 elap:               0.0
 (Enter /share/apps/g16.b01_avx2/g16/l202.exe)
                          Input orientation:                          
 ---------------------------------------------------------------------
 Center     Atomic      Atomic             Coordinates (Angstroms)
 Number     Number       Type             X           Y           Z
 ---------------------------------------------------------------------
      1          8           0        0.735232   -0.167831   -3.089851
      2          6           0        1.192322    0.833687   -2.480260
      3          6           0        2.460109    1.537903   -2.998329
      4          8           0        0.534512    1.317860   -1.306479
      5          6           0       -0.536767    0.722795   -0.868710
      6          6           0       -0.427970   -0.327731    0.052420
      7          6           0       -1.799249    1.132482   -1.318397
      8          6           0       -1.581656   -0.968567    0.523866
      9          6           0       -2.952934    0.491645   -0.846953
     10          6           0       -2.844137   -0.558879    0.074180
     11          9           0        0.788207   -0.722394    0.485610
     12          9           0       -1.904056    2.144478   -2.205741
     13          9           0       -1.476849   -1.980560    1.411214
     14          9           0       -4.169111    0.886306   -1.280145
     15          9           0       -3.955508   -1.176210    0.528336
     16          9           0        3.549617    0.977992   -2.430904
     17          1           0        2.517587    1.432221   -4.061545
     18          1           0        2.419959    2.576660   -2.744808
 ---------------------------------------------------------------------
                    Distance matrix (angstroms):
                    1          2          3          4          5
     1  O    0.000000
     2  C    1.258400   0.000000
     3  C    2.427572   1.540000   0.000000
     4  O    2.329803   1.430000   2.572683   0.000000
     5  C    2.710105   2.366250   3.765760   1.301300   0.000000
     6  C    3.354471   3.223151   4.596592   2.341142   1.401400
     7  C    3.354469   3.223151   4.596593   2.341142   1.401400
     8  C    4.366703   4.468539   5.918117   3.613319   2.427296
     9  C    4.366700   4.468538   5.918117   3.613319   2.427296
    10  C    4.793318   4.975682   6.478567   4.104100   2.802800
    11  F    3.618601   3.373586   4.476833   2.727376   2.382921
    12  F    3.618600   3.373587   4.476836   2.727376   2.382921
    13  F    5.332811   5.494363   6.879193   4.723452   3.659226
    14  F    5.332806   5.494361   6.879193   4.723452   3.659226
    15  F    6.009256   6.292177   7.807939   5.454100   4.152800
    16  F    3.109323   2.362224   1.350000   3.235846   4.382249
    17  H    2.584792   2.148263   1.070000   3.396477   4.475105
    18  H    3.238764   2.148263   1.070000   2.684824   3.962169
                    6          7          8          9         10
     6  C    0.000000
     7  C    2.427296   0.000000
     8  C    1.401400   2.802800   0.000000
     9  C    2.802800   1.401400   2.427296   0.000000
    10  C    2.427296   2.427296   1.401400   1.401400   0.000000
    11  F    1.350000   3.659226   2.382921   4.152800   3.659226
    12  F    3.659226   1.350000   4.152800   2.382921   3.659226
    13  F    2.382921   4.152800   1.350000   3.659226   2.382921
    14  F    4.152800   2.382921   3.659226   1.350000   2.382921
    15  F    3.659226   3.659226   2.382921   2.382921   1.350000
    16  F    4.867546   5.465520   6.232954   6.710336   7.036868
    17  H    5.357093   5.123454   6.602543   6.414429   7.058101
    18  H    4.936666   4.682095   6.266241   6.067711   6.744554
                   11         12         13         14         15
    11  F    0.000000
    12  F    4.765565   0.000000
    13  F    2.751400   5.502800   0.000000
    14  F    5.502800   2.751400   4.765565   0.000000
    15  F    4.765565   4.765565   2.751400   2.751400   0.000000
    16  F    4.361508   5.581571   6.984287   7.804576   8.350125
    17  H    5.320690   4.847911   7.586415   7.262654   8.352957
    18  H    4.897139   4.378867   7.295607   6.958331   8.089752
                   16         17         18
    16  F    0.000000
    17  H    1.982524   0.000000
    18  H    1.982524   1.747303   0.000000
 Stoichiometry    C8H2F6O2
 Framework group  C1[X(C8H2F6O2)]
 Deg. of freedom    48
 Full point group                 C1      NOp   1
 Largest Abelian subgroup         C1      NOp   1
 Largest concise Abelian subgroup C1      NOp   1
                         Standard orientation:                         
 ---------------------------------------------------------------------
 Center     Atomic      Atomic             Coordinates (Angstroms)
 Number     Number       Type             X           Y           Z
 ---------------------------------------------------------------------
      1          8           0        2.055839   -0.293717    1.544577
      2          6           0        2.447876   -0.328913    0.349320
      3          6           0        3.948341   -0.475441    0.035101
      4          8           0        1.500083   -0.232847   -0.717151
      5          6           0        0.232191   -0.109030   -0.451636
      6          6           0       -0.331868    1.165471   -0.305316
      7          6           0       -0.569174   -1.250188   -0.312014
      8          6           0       -1.697291    1.298813   -0.019380
      9          6           0       -1.934598   -1.116846   -0.026075
     10          6           0       -2.498657    0.157655    0.120240
     11          9           0        0.440106    2.264774   -0.439813
     12          9           0       -0.025805   -2.477943   -0.452967
     13          9           0       -2.240662    2.526568    0.121569
     14          9           0       -2.706570   -2.216149    0.108425
     15          9           0       -3.814000    0.286106    0.395687
     16          9           0        4.511223    0.748433   -0.053202
     17          1           0        4.423713   -1.031139    0.816203
     18          1           0        4.069364   -0.991584   -0.894334
 ---------------------------------------------------------------------
 Rotational constants (GHZ):           0.8637916           0.3313082           0.2552745
 Leave Link  202 at Thu Aug 29 15:27:58 2024, MaxMem=  8589934592 cpu:               0.2 elap:               0.0
 (Enter /share/apps/g16.b01_avx2/g16/l301.exe)
 Standard basis: def2TZVP (5D, 7F)
 Ernie: Thresh=  0.10000D-02 Tol=  0.10000D-05 Strict=F.
 There are   588 symmetry adapted cartesian basis functions of A   symmetry.
 There are   508 symmetry adapted basis functions of A   symmetry.
   508 basis functions,   832 primitive gaussians,   588 cartesian basis functions
    60 alpha electrons       60 beta electrons
       nuclear repulsion energy      1150.1298908227 Hartrees.
 IExCor= 1009 DFT=T Ex+Corr=PBE1PBE ExCW=0 ScaHFX=  0.250000
 ScaDFX=  0.750000  0.750000  1.000000  1.000000 ScalE2=  1.000000  1.000000
 IRadAn=  99590 IRanWt=     -1 IRanGd=            0 ICorTp=0 IEmpDi=131
 NAtoms=   18 NActive=   18 NUniq=   18 SFac= 1.00D+00 NAtFMM=   60 NAOKFM=F Big=F
 Integral buffers will be    131072 words long.
 Raffenetti 2 integral format.
 Two-electron integral symmetry is turned on.
 R6Disp:  Grimme-D3 Dispersion energy=       -0.0092031230 Hartrees.
 Nuclear repulsion after empirical dispersion term =     1150.1206876997 Hartrees.
 ------------------------------------------------------------------------------
 Polarizable Continuum Model (PCM)
 =================================
 Model                : PCM.
 Atomic radii         : UFF (Universal Force Field).
 Polarization charges : Total charges.
 Charge compensation  : None.
 Solution method      : On-the-fly selection.
 Cavity type          : Scaled VdW (van der Waals Surface) (Alpha=1.100).
 Cavity algorithm     : GePol (No added spheres)
                        Default sphere list used, NSphG=   18.
                        Lebedev-Laikov grids with approx.  5.0 points / Ang**2.
                        Smoothing algorithm: York/Karplus (Gamma=1.0000).
                        Polarization charges: spherical gaussians, with
                                              point-specific exponents (IZeta= 3).
                        Self-potential: point-specific (ISelfS= 7).
                        Self-field    : sphere-specific E.n sum rule (ISelfD= 2).
 1st derivatives      : Analytical E(r).r(x)/FMM algorithm (CHGder, D1EAlg=3).
                        Cavity 1st derivative terms included.
 Solvent              : Water, Eps=  78.355300 Eps(inf)=   1.777849
 ------------------------------------------------------------------------------
 Spheres list:
 ISph  on   Nord     Re0    Alpha      Xe            Ye            Ze
    1   O      1    1.7500  1.100      2.055839     -0.293717      1.544577
    2   C      2    1.9255  1.100      2.447876     -0.328913      0.349320
    3   C      3    1.9255  1.100      3.948341     -0.475441      0.035101
    4   O      4    1.7500  1.100      1.500083     -0.232847     -0.717151
    5   C      5    1.9255  1.100      0.232191     -0.109030     -0.451636
    6   C      6    1.9255  1.100     -0.331868      1.165471     -0.305316
    7   C      7    1.9255  1.100     -0.569174     -1.250188     -0.312014
    8   C      8    1.9255  1.100     -1.697291      1.298813     -0.019380
    9   C      9    1.9255  1.100     -1.934598     -1.116846     -0.026075
   10   C     10    1.9255  1.100     -2.498657      0.157655      0.120240
   11   F     11    1.6820  1.100      0.440106      2.264774     -0.439813
   12   F     12    1.6820  1.100     -0.025805     -2.477943     -0.452967
   13   F     13    1.6820  1.100     -2.240662      2.526568      0.121569
   14   F     14    1.6820  1.100     -2.706570     -2.216149      0.108425
   15   F     15    1.6820  1.100     -3.814000      0.286106      0.395687
   16   F     16    1.6820  1.100      4.511223      0.748433     -0.053202
   17   H     17    1.4430  1.100      4.423713     -1.031139      0.816203
   18   H     18    1.4430  1.100      4.069364     -0.991584     -0.894334
 ------------------------------------------------------------------------------
 GePol: Number of generator spheres                  =      18
 GePol: Total number of spheres                      =      18
 GePol: Number of exposed spheres                    =      18 (100.00%)
 GePol: Number of points                             =    1994
 GePol: Average weight of points                     =       0.12
 GePol: Minimum weight of points                     =   0.13D-09
 GePol: Maximum weight of points                     =    0.20576
 GePol: Number of points with low weight             =      77
 GePol: Fraction of low-weight points (<1% of avg)   =       3.86%
 GePol: Cavity surface area                          =    244.771 Ang**2
 GePol: Cavity volume                                =    244.513 Ang**3
 Leave Link  301 at Thu Aug 29 15:27:58 2024, MaxMem=  8589934592 cpu:               1.7 elap:               0.1
 (Enter /share/apps/g16.b01_avx2/g16/l302.exe)
 NPDir=0 NMtPBC=     1 NCelOv=     1 NCel=       1 NClECP=     1 NCelD=      1
         NCelK=      1 NCelE2=     1 NClLst=     1 CellRange=     0.0.
 One-electron integrals computed using PRISM.
 One-electron integral symmetry used in STVInt
   1 Symmetry operations used in ECPInt.
 ECPInt:  NShTT=   17020 NPrTT=   55636 LenC2=   14952 LenP2D=   35066.
 LDataN:  DoStor=T MaxTD1= 6 Len=  172
 NBasis=   508 RedAO= T EigKep=  1.80D-05  NBF=   508
 NBsUse=   508 1.00D-06 EigRej= -1.00D+00 NBFU=   508
 Precomputing XC quadrature grid using
 IXCGrd= 4 IRadAn=       99590 IRanWt=          -1 IRanGd=           0 AccXCQ= 0.00D+00.
 Generated NRdTot=       0 NPtTot=           0 NUsed=           0 NTot=          32
 NSgBfM=   578   578   578   578   578 MxSgAt=    18 MxSgA2=    18.
 Leave Link  302 at Thu Aug 29 15:27:59 2024, MaxMem=  8589934592 cpu:               9.1 elap:               0.4
 (Enter /share/apps/g16.b01_avx2/g16/l303.exe)
 DipDrv:  MaxL=1.
 Leave Link  303 at Thu Aug 29 15:27:59 2024, MaxMem=  8589934592 cpu:               1.4 elap:               0.1
 (Enter /share/apps/g16.b01_avx2/g16/l401.exe)
 ExpMin= 9.52D-02 ExpMax= 3.55D+04 ExpMxC= 1.21D+03 IAcc=4 IRadAn=    199590 AccDes= 0.00D+00
 Harris functional with IExCor= 1009 and IRadAn=  199590 diagonalized for initial guess.
 HarFok:  IExCor= 1009 AccDes= 0.00D+00 IRadAn=    199590 IDoV= 1 UseB2=F ITyADJ=14
 ICtDFT=  3500011 ScaDFX=  1.000000  1.000000  1.000000  1.000000
 FoFCou: FMM=F IPFlag=           0 FMFlag=      100000 FMFlg1=           0
         NFxFlg=           0 DoJE=T BraDBF=F KetDBF=T FulRan=T
         wScrn=  0.000000 ICntrl=       500 IOpCl=  0 I1Cent=   200000004 NGrid=           0
         NMat0=    1 NMatS0=      1 NMatT0=    0 NMatD0=    1 NMtDS0=    0 NMtDT0=    0
 Petite list used in FoFCou.
 Harris En= -1054.87554904014    
 JPrj=0 DoOrth=F DoCkMO=F.
 Leave Link  401 at Thu Aug 29 15:28:01 2024, MaxMem=  8589934592 cpu:              42.7 elap:               1.8
 (Enter /share/apps/g16.b01_avx2/g16/l502.exe)
 Integral symmetry usage will be decided dynamically.
 Closed shell SCF:
 Using DIIS extrapolation, IDIIS=  1040.
 NGot=  8589934592 LenX=  8589224048 LenY=  8588877716
 Requested convergence on RMS density matrix=1.00D-08 within 128 cycles.
 Requested convergence on MAX density matrix=1.00D-06.
 Requested convergence on             energy=1.00D-06.
 No special actions if energy rises.
 Fock matrices will be formed incrementally for  20 cycles.

 Cycle   1  Pass 1  IDiag  1:
 FoFJK:  IHMeth= 1 ICntrl=       0 DoSepK=F KAlg= 0 I1Cent=           0 FoldK=F
 IRaf= 820000000 NMat=       1 IRICut=       1 DoRegI=T DoRafI=F ISym2E= 0 IDoP0=0 IntGTp=1.
 FoFCou: FMM=F IPFlag=           0 FMFlag=      100000 FMFlg1=           0
         NFxFlg=           0 DoJE=F BraDBF=F KetDBF=F FulRan=T
         wScrn=  0.000000 ICntrl=         0 IOpCl=  0 I1Cent=           0 NGrid=           0
         NMat0=    1 NMatS0=      1 NMatT0=    0 NMatD0=    1 NMtDS0=    0 NMtDT0=    0
 Symmetry not used in FoFCou.
 Inv3:  Mode=1 IEnd=    11928108.
 Iteration    1 A*A^-1 deviation from unit magnitude is 3.11D-15 for    579.
 Iteration    1 A*A^-1 deviation from orthogonality  is 1.85D-15 for    948    643.
 Iteration    1 A^-1*A deviation from unit magnitude is 2.89D-15 for    579.
 Iteration    1 A^-1*A deviation from orthogonality  is 7.34D-15 for   1762   1754.
 E= -1054.71795453846    
 DIIS: error= 1.79D-02 at cycle   1 NSaved=   1.
 NSaved= 1 IEnMin= 1 EnMin= -1054.71795453846     IErMin= 1 ErrMin= 1.79D-02
 ErrMax= 1.79D-02  0.00D+00 EMaxC= 1.00D-01 BMatC= 2.30D-01 BMatP= 2.30D-01
 IDIUse=3 WtCom= 8.21D-01 WtEn= 1.79D-01
 Coeff-Com:  0.100D+01
 Coeff-En:   0.100D+01
 Coeff:      0.100D+01
 Gap=     0.201 Goal=   None    Shift=    0.000
 GapD=    0.201 DampG=1.000 DampE=0.500 DampFc=0.5000 IDamp=-1.
 Damping current iteration by 5.00D-01
 RMSDP=1.49D-03 MaxDP=1.13D-01              OVMax= 2.60D-01

 Cycle   2  Pass 1  IDiag  1:
 RMSU=  7.43D-04    CP:  9.96D-01
 E= -1054.74661597418     Delta-E=       -0.028661435713 Rises=F Damp=T
 DIIS: error= 8.18D-03 at cycle   2 NSaved=   2.
 NSaved= 2 IEnMin= 2 EnMin= -1054.74661597418     IErMin= 2 ErrMin= 8.18D-03
 ErrMax= 8.18D-03  0.00D+00 EMaxC= 1.00D-01 BMatC= 4.76D-02 BMatP= 2.30D-01
 IDIUse=3 WtCom= 9.18D-01 WtEn= 8.18D-02
 Coeff-Com:  0.191D+00 0.809D+00
 Coeff-En:   0.386D+00 0.614D+00
 Coeff:      0.207D+00 0.793D+00
 Gap=     0.266 Goal=   None    Shift=    0.000
 RMSDP=6.81D-04 MaxDP=4.30D-02 DE=-2.87D-02 OVMax= 1.58D-01

 Cycle   3  Pass 1  IDiag  1:
 RMSU=  6.30D-04    CP:  9.84D-01  6.78D-01
 E= -1054.82744073805     Delta-E=       -0.080824763871 Rises=F Damp=F
 DIIS: error= 8.89D-03 at cycle   3 NSaved=   3.
 NSaved= 3 IEnMin= 3 EnMin= -1054.82744073805     IErMin= 2 ErrMin= 8.18D-03
 ErrMax= 8.89D-03  0.00D+00 EMaxC= 1.00D-01 BMatC= 3.82D-02 BMatP= 4.76D-02
 IDIUse=3 WtCom= 9.11D-01 WtEn= 8.89D-02
 Coeff-Com: -0.403D-01 0.477D+00 0.563D+00
 Coeff-En:   0.000D+00 0.000D+00 0.100D+01
 Coeff:     -0.367D-01 0.435D+00 0.602D+00
 Gap=     0.221 Goal=   None    Shift=    0.000
 RMSDP=3.55D-04 MaxDP=2.93D-02 DE=-8.08D-02 OVMax= 8.82D-02

 Cycle   4  Pass 1  IDiag  1:
 RMSU=  3.25D-04    CP:  9.81D-01  8.20D-01  8.54D-01
 E= -1054.85106843387     Delta-E=       -0.023627695824 Rises=F Damp=F
 DIIS: error= 2.71D-03 at cycle   4 NSaved=   4.
 NSaved= 4 IEnMin= 4 EnMin= -1054.85106843387     IErMin= 4 ErrMin= 2.71D-03
 ErrMax= 2.71D-03  0.00D+00 EMaxC= 1.00D-01 BMatC= 7.07D-03 BMatP= 3.82D-02
 IDIUse=3 WtCom= 9.73D-01 WtEn= 2.71D-02
 Coeff-Com: -0.356D-01 0.154D+00 0.357D+00 0.525D+00
 Coeff-En:   0.000D+00 0.000D+00 0.166D+00 0.834D+00
 Coeff:     -0.347D-01 0.150D+00 0.352D+00 0.533D+00
 Gap=     0.218 Goal=   None    Shift=    0.000
 RMSDP=1.28D-04 MaxDP=9.58D-03 DE=-2.36D-02 OVMax= 2.87D-02

 Cycle   5  Pass 1  IDiag  1:
 RMSU=  6.99D-05    CP:  9.81D-01  7.91D-01  9.24D-01  7.07D-01
 E= -1054.85576424299     Delta-E=       -0.004695809124 Rises=F Damp=F
 DIIS: error= 7.80D-04 at cycle   5 NSaved=   5.
 NSaved= 5 IEnMin= 5 EnMin= -1054.85576424299     IErMin= 5 ErrMin= 7.80D-04
 ErrMax= 7.80D-04  0.00D+00 EMaxC= 1.00D-01 BMatC= 5.36D-04 BMatP= 7.07D-03
 IDIUse=3 WtCom= 9.92D-01 WtEn= 7.80D-03
 Coeff-Com: -0.134D-01 0.329D-01 0.131D+00 0.303D+00 0.546D+00
 Coeff-En:   0.000D+00 0.000D+00 0.000D+00 0.289D-01 0.971D+00
 Coeff:     -0.133D-01 0.326D-01 0.130D+00 0.301D+00 0.549D+00
 Gap=     0.218 Goal=   None    Shift=    0.000
 RMSDP=3.56D-05 MaxDP=2.28D-03 DE=-4.70D-03 OVMax= 6.15D-03

 Cycle   6  Pass 1  IDiag  1:
 RMSU=  1.53D-05    CP:  9.81D-01  7.98D-01  9.12D-01  7.29D-01  5.74D-01
 E= -1054.85618548308     Delta-E=       -0.000421240087 Rises=F Damp=F
 DIIS: error= 1.26D-04 at cycle   6 NSaved=   6.
 NSaved= 6 IEnMin= 6 EnMin= -1054.85618548308     IErMin= 6 ErrMin= 1.26D-04
 ErrMax= 1.26D-04  0.00D+00 EMaxC= 1.00D-01 BMatC= 1.44D-05 BMatP= 5.36D-04
 IDIUse=3 WtCom= 9.99D-01 WtEn= 1.26D-03
 Coeff-Com: -0.383D-02 0.566D-02 0.349D-01 0.926D-01 0.232D+00 0.639D+00
 Coeff-En:   0.000D+00 0.000D+00 0.000D+00 0.000D+00 0.000D+00 0.100D+01
 Coeff:     -0.382D-02 0.565D-02 0.349D-01 0.925D-01 0.232D+00 0.639D+00
 Gap=     0.219 Goal=   None    Shift=    0.000
 RMSDP=7.05D-06 MaxDP=3.54D-04 DE=-4.21D-04 OVMax= 1.20D-03

 Cycle   7  Pass 1  IDiag  1:
 RMSU=  5.32D-06    CP:  9.81D-01  8.00D-01  9.12D-01  7.26D-01  6.19D-01
                    CP:  8.13D-01
 E= -1054.85619652530     Delta-E=       -0.000011042215 Rises=F Damp=F
 DIIS: error= 4.67D-05 at cycle   7 NSaved=   7.
 NSaved= 7 IEnMin= 7 EnMin= -1054.85619652530     IErMin= 7 ErrMin= 4.67D-05
 ErrMax= 4.67D-05  0.00D+00 EMaxC= 1.00D-01 BMatC= 1.48D-06 BMatP= 1.44D-05
 IDIUse=1 WtCom= 1.00D+00 WtEn= 0.00D+00
 Coeff-Com: -0.830D-03 0.436D-03 0.717D-02 0.205D-01 0.710D-01 0.307D+00
 Coeff-Com:  0.595D+00
 Coeff:     -0.830D-03 0.436D-03 0.717D-02 0.205D-01 0.710D-01 0.307D+00
 Coeff:      0.595D+00
 Gap=     0.219 Goal=   None    Shift=    0.000
 RMSDP=2.29D-06 MaxDP=1.14D-04 DE=-1.10D-05 OVMax= 4.41D-04

 Cycle   8  Pass 1  IDiag  1:
 RMSU=  1.47D-06    CP:  9.81D-01  7.99D-01  9.12D-01  7.27D-01  6.16D-01
                    CP:  8.56D-01  7.43D-01
 E= -1054.85619764120     Delta-E=       -0.000001115900 Rises=F Damp=F
 DIIS: error= 1.53D-05 at cycle   8 NSaved=   8.
 NSaved= 8 IEnMin= 8 EnMin= -1054.85619764120     IErMin= 8 ErrMin= 1.53D-05
 ErrMax= 1.53D-05  0.00D+00 EMaxC= 1.00D-01 BMatC= 1.68D-07 BMatP= 1.48D-06
 IDIUse=1 WtCom= 1.00D+00 WtEn= 0.00D+00
 Coeff-Com:  0.138D-04-0.378D-03 0.177D-04-0.220D-04 0.111D-01 0.821D-01
 Coeff-Com:  0.287D+00 0.620D+00
 Coeff:      0.138D-04-0.378D-03 0.177D-04-0.220D-04 0.111D-01 0.821D-01
 Coeff:      0.287D+00 0.620D+00
 Gap=     0.219 Goal=   None    Shift=    0.000
 RMSDP=7.15D-07 MaxDP=3.59D-05 DE=-1.12D-06 OVMax= 1.38D-04

 Cycle   9  Pass 1  IDiag  1:
 RMSU=  5.28D-07    CP:  9.81D-01  7.99D-01  9.12D-01  7.27D-01  6.18D-01
                    CP:  8.68D-01  7.93D-01  7.82D-01
 E= -1054.85619777308     Delta-E=       -0.000000131887 Rises=F Damp=F
 DIIS: error= 3.51D-06 at cycle   9 NSaved=   9.
 NSaved= 9 IEnMin= 9 EnMin= -1054.85619777308     IErMin= 9 ErrMin= 3.51D-06
 ErrMax= 3.51D-06  0.00D+00 EMaxC= 1.00D-01 BMatC= 1.91D-08 BMatP= 1.68D-07
 IDIUse=1 WtCom= 1.00D+00 WtEn= 0.00D+00
 Coeff-Com:  0.940D-04-0.237D-03-0.676D-03-0.222D-02-0.245D-02 0.294D-02
 Coeff-Com:  0.612D-01 0.300D+00 0.641D+00
 Coeff:      0.940D-04-0.237D-03-0.676D-03-0.222D-02-0.245D-02 0.294D-02
 Coeff:      0.612D-01 0.300D+00 0.641D+00
 Gap=     0.219 Goal=   None    Shift=    0.000
 RMSDP=2.17D-07 MaxDP=9.97D-06 DE=-1.32D-07 OVMax= 2.55D-05

 Cycle  10  Pass 1  IDiag  1:
 RMSU=  1.08D-07    CP:  9.81D-01  7.99D-01  9.12D-01  7.26D-01  6.18D-01
                    CP:  8.70D-01  8.04D-01  8.45D-01  7.56D-01
 E= -1054.85619778858     Delta-E=       -0.000000015495 Rises=F Damp=F
 DIIS: error= 6.41D-07 at cycle  10 NSaved=  10.
 NSaved=10 IEnMin=10 EnMin= -1054.85619778858     IErMin=10 ErrMin= 6.41D-07
 ErrMax= 6.41D-07  0.00D+00 EMaxC= 1.00D-01 BMatC= 2.72D-10 BMatP= 1.91D-08
 IDIUse=1 WtCom= 1.00D+00 WtEn= 0.00D+00
 Coeff-Com:  0.206D-04-0.400D-04-0.123D-03-0.454D-03-0.879D-03-0.301D-02
 Coeff-Com: -0.963D-03 0.317D-01 0.120D+00 0.854D+00
 Coeff:      0.206D-04-0.400D-04-0.123D-03-0.454D-03-0.879D-03-0.301D-02
 Coeff:     -0.963D-03 0.317D-01 0.120D+00 0.854D+00
 Gap=     0.219 Goal=   None    Shift=    0.000
 RMSDP=5.34D-08 MaxDP=2.61D-06 DE=-1.55D-08 OVMax= 8.62D-06

 Cycle  11  Pass 1  IDiag  1:
 RMSU=  3.69D-08    CP:  9.81D-01  7.99D-01  9.12D-01  7.26D-01  6.18D-01
                    CP:  8.71D-01  8.05D-01  8.59D-01  8.05D-01  9.73D-01
 E= -1054.85619778882     Delta-E=       -0.000000000243 Rises=F Damp=F
 DIIS: error= 3.04D-07 at cycle  11 NSaved=  11.
 NSaved=11 IEnMin=11 EnMin= -1054.85619778882     IErMin=11 ErrMin= 3.04D-07
 ErrMax= 3.04D-07  0.00D+00 EMaxC= 1.00D-01 BMatC= 7.20D-11 BMatP= 2.72D-10
 IDIUse=1 WtCom= 1.00D+00 WtEn= 0.00D+00
 Coeff-Com:  0.231D-05-0.474D-06 0.483D-05-0.974D-05-0.149D-03-0.145D-02
 Coeff-Com: -0.565D-02-0.137D-01-0.783D-02 0.386D+00 0.643D+00
 Coeff:      0.231D-05-0.474D-06 0.483D-05-0.974D-05-0.149D-03-0.145D-02
 Coeff:     -0.565D-02-0.137D-01-0.783D-02 0.386D+00 0.643D+00
 Gap=     0.219 Goal=   None    Shift=    0.000
 RMSDP=1.51D-08 MaxDP=6.48D-07 DE=-2.43D-10 OVMax= 1.83D-06

 Cycle  12  Pass 1  IDiag  1:
 RMSU=  1.05D-08    CP:  9.81D-01  7.99D-01  9.12D-01  7.26D-01  6.18D-01
                    CP:  8.71D-01  8.05D-01  8.60D-01  8.05D-01  1.04D+00
                    CP:  8.27D-01
 E= -1054.85619778888     Delta-E=       -0.000000000063 Rises=F Damp=F
 DIIS: error= 6.98D-08 at cycle  12 NSaved=  12.
 NSaved=12 IEnMin=12 EnMin= -1054.85619778888     IErMin=12 ErrMin= 6.98D-08
 ErrMax= 6.98D-08  0.00D+00 EMaxC= 1.00D-01 BMatC= 6.28D-12 BMatP= 7.20D-11
 IDIUse=1 WtCom= 1.00D+00 WtEn= 0.00D+00
 Coeff-Com: -0.556D-06 0.300D-05 0.150D-04 0.356D-04 0.126D-04-0.381D-03
 Coeff-Com: -0.247D-02-0.904D-02-0.143D-01 0.105D+00 0.289D+00 0.633D+00
 Coeff:     -0.556D-06 0.300D-05 0.150D-04 0.356D-04 0.126D-04-0.381D-03
 Coeff:     -0.247D-02-0.904D-02-0.143D-01 0.105D+00 0.289D+00 0.633D+00
 Gap=     0.219 Goal=   None    Shift=    0.000
 RMSDP=5.05D-09 MaxDP=2.43D-07 DE=-6.28D-11 OVMax= 4.43D-07

 Error on total polarization charges =  0.00688
 SCF Done:  E(RPBE1PBE) =  -1054.85619779     A.U. after   12 cycles
            NFock= 12  Conv=0.51D-08     -V/T= 2.0042
 KE= 1.050428374011D+03 PE=-4.793602307228D+03 EE= 1.538197047729D+03
 Leave Link  502 at Thu Aug 29 15:28:48 2024, MaxMem=  8589934592 cpu:            1123.3 elap:              47.2
 (Enter /share/apps/g16.b01_avx2/g16/l601.exe)
 Copying SCF densities to generalized density rwf, IOpCl= 0 IROHF=0.

 **********************************************************************

            Population analysis using the SCF Density.

 **********************************************************************

 Orbital symmetries:
       Occupied  (A) (A) (A) (A) (A) (A) (A) (A) (A) (A) (A) (A)
                 (A) (A) (A) (A) (A) (A) (A) (A) (A) (A) (A) (A)
                 (A) (A) (A) (A) (A) (A) (A) (A) (A) (A) (A) (A)
                 (A) (A) (A) (A) (A) (A) (A) (A) (A) (A) (A) (A)
                 (A) (A) (A) (A) (A) (A) (A) (A) (A) (A) (A) (A)
       Virtual   (A) (A) (A) (A) (A) (A) (A) (A) (A) (A) (A) (A)
                 (A) (A) (A) (A) (A) (A) (A) (A) (A) (A) (A) (A)
                 (A) (A) (A) (A) (A) (A) (A) (A) (A) (A) (A) (A)
                 (A) (A) (A) (A) (A) (A) (A) (A) (A) (A) (A) (A)
                 (A) (A) (A) (A) (A) (A) (A) (A) (A) (A) (A) (A)
                 (A) (A) (A) (A) (A) (A) (A) (A) (A) (A) (A) (A)
                 (A) (A) (A) (A) (A) (A) (A) (A) (A) (A) (A) (A)
                 (A) (A) (A) (A) (A) (A) (A) (A) (A) (A) (A) (A)
                 (A) (A) (A) (A) (A) (A) (A) (A) (A) (A) (A) (A)
                 (A) (A) (A) (A) (A) (A) (A) (A) (A) (A) (A) (A)
                 (A) (A) (A) (A) (A) (A) (A) (A) (A) (A) (A) (A)
                 (A) (A) (A) (A) (A) (A) (A) (A) (A) (A) (A) (A)
                 (A) (A) (A) (A) (A) (A) (A) (A) (A) (A) (A) (A)
                 (A) (A) (A) (A) (A) (A) (A) (A) (A) (A) (A) (A)
                 (A) (A) (A) (A) (A) (A) (A) (A) (A) (A) (A) (A)
                 (A) (A) (A) (A) (A) (A) (A) (A) (A) (A) (A) (A)
                 (A) (A) (A) (A) (A) (A) (A) (A) (A) (A) (A) (A)
                 (A) (A) (A) (A) (A) (A) (A) (A) (A) (A) (A) (A)
                 (A) (A) (A) (A) (A) (A) (A) (A) (A) (A) (A) (A)
                 (A) (A) (A) (A) (A) (A) (A) (A) (A) (A) (A) (A)
                 (A) (A) (A) (A) (A) (A) (A) (A) (A) (A) (A) (A)
                 (A) (A) (A) (A) (A) (A) (A) (A) (A) (A) (A) (A)
                 (A) (A) (A) (A) (A) (A) (A) (A) (A) (A) (A) (A)
                 (A) (A) (A) (A) (A) (A) (A) (A) (A) (A) (A) (A)
                 (A) (A) (A) (A) (A) (A) (A) (A) (A) (A) (A) (A)
                 (A) (A) (A) (A) (A) (A) (A) (A) (A) (A) (A) (A)
                 (A) (A) (A) (A) (A) (A) (A) (A) (A) (A) (A) (A)
                 (A) (A) (A) (A) (A) (A) (A) (A) (A) (A) (A) (A)
                 (A) (A) (A) (A) (A) (A) (A) (A) (A) (A) (A) (A)
                 (A) (A) (A) (A) (A) (A) (A) (A) (A) (A) (A) (A)
                 (A) (A) (A) (A) (A) (A) (A) (A) (A) (A) (A) (A)
                 (A) (A) (A) (A) (A) (A) (A) (A) (A) (A) (A) (A)
                 (A) (A) (A) (A) (A) (A) (A) (A) (A) (A) (A) (A)
                 (A) (A) (A) (A) (A) (A) (A) (A) (A) (A) (A) (A)
                 (A) (A) (A) (A) (A) (A) (A) (A) (A) (A) (A) (A)
                 (A) (A) (A) (A) (A) (A) (A) (A) (A) (A) (A) (A)
                 (A) (A) (A) (A) (A) (A) (A) (A) (A) (A) (A) (A)
                 (A) (A) (A) (A)
 The electronic state is 1-A.
 Alpha  occ. eigenvalues --  -24.82311 -24.82302 -24.82287 -24.82132 -24.82128
 Alpha  occ. eigenvalues --  -24.79033 -19.30570 -19.24437 -10.41049 -10.36187
 Alpha  occ. eigenvalues --  -10.35985 -10.35975 -10.35830 -10.35822 -10.33748
 Alpha  occ. eigenvalues --  -10.33239  -1.30547  -1.30052  -1.29578  -1.28834
 Alpha  occ. eigenvalues --   -1.28404  -1.27273  -1.18416  -1.08253  -0.93590
 Alpha  occ. eigenvalues --   -0.83203  -0.81972  -0.78778  -0.72186  -0.70531
 Alpha  occ. eigenvalues --   -0.66444  -0.63231  -0.62755  -0.60043  -0.58125
 Alpha  occ. eigenvalues --   -0.58003  -0.56998  -0.56611  -0.55775  -0.55466
 Alpha  occ. eigenvalues --   -0.54539  -0.53093  -0.52825  -0.51576  -0.50195
 Alpha  occ. eigenvalues --   -0.49630  -0.48028  -0.47807  -0.47633  -0.46655
 Alpha  occ. eigenvalues --   -0.44710  -0.44169  -0.42066  -0.41464  -0.39429
 Alpha  occ. eigenvalues --   -0.38080  -0.36784  -0.33154  -0.28584  -0.28560
 Alpha virt. eigenvalues --   -0.06682  -0.04084  -0.03276  -0.02732   0.05849
 Alpha virt. eigenvalues --    0.06188   0.09086   0.10404   0.11120   0.11811
 Alpha virt. eigenvalues --    0.12926   0.15022   0.15737   0.16291   0.16444
 Alpha virt. eigenvalues --    0.17038   0.19237   0.19334   0.20234   0.22339
 Alpha virt. eigenvalues --    0.24540   0.25389   0.25812   0.25963   0.27641
 Alpha virt. eigenvalues --    0.27727   0.28291   0.29151   0.29777   0.30808
 Alpha virt. eigenvalues --    0.31274   0.31933   0.32843   0.33531   0.35901
 Alpha virt. eigenvalues --    0.36336   0.36850   0.37625   0.38766   0.39086
 Alpha virt. eigenvalues --    0.39701   0.40015   0.40568   0.41618   0.42066
 Alpha virt. eigenvalues --    0.44040   0.44344   0.44961   0.45710   0.46141
 Alpha virt. eigenvalues --    0.47294   0.48745   0.49715   0.51701   0.52494
 Alpha virt. eigenvalues --    0.54912   0.55702   0.56254   0.57558   0.59756
 Alpha virt. eigenvalues --    0.59759   0.60216   0.62031   0.62676   0.65627
 Alpha virt. eigenvalues --    0.66266   0.67077   0.68370   0.69147   0.69677
 Alpha virt. eigenvalues --    0.71413   0.72043   0.72730   0.74029   0.74622
 Alpha virt. eigenvalues --    0.75096   0.76697   0.78222   0.79208   0.81657
 Alpha virt. eigenvalues --    0.82375   0.83669   0.83703   0.84424   0.85311
 Alpha virt. eigenvalues --    0.85979   0.86107   0.87113   0.87520   0.88712
 Alpha virt. eigenvalues --    0.91067   0.91534   0.93374   0.94220   0.95264
 Alpha virt. eigenvalues --    0.96656   0.97872   1.00079   1.00314   1.02009
 Alpha virt. eigenvalues --    1.02613   1.04239   1.04709   1.08198   1.08425
 Alpha virt. eigenvalues --    1.09147   1.09792   1.12541   1.12677   1.14281
 Alpha virt. eigenvalues --    1.17235   1.18348   1.18515   1.24356   1.25180
 Alpha virt. eigenvalues --    1.26994   1.29143   1.30873   1.31418   1.34028
 Alpha virt. eigenvalues --    1.37126   1.37396   1.38114   1.41593   1.41976
 Alpha virt. eigenvalues --    1.43405   1.44161   1.45718   1.49012   1.49976
 Alpha virt. eigenvalues --    1.51552   1.52724   1.57350   1.57883   1.61170
 Alpha virt. eigenvalues --    1.61715   1.63403   1.68408   1.70279   1.70562
 Alpha virt. eigenvalues --    1.71846   1.73393   1.73977   1.75308   1.77869
 Alpha virt. eigenvalues --    1.78936   1.79439   1.80264   1.81435   1.84551
 Alpha virt. eigenvalues --    1.89126   1.89506   1.91767   1.92725   1.94392
 Alpha virt. eigenvalues --    1.95041   1.95770   1.98205   1.98566   2.01104
 Alpha virt. eigenvalues --    2.02085   2.02743   2.03630   2.03957   2.04954
 Alpha virt. eigenvalues --    2.09020   2.10658   2.11169   2.11881   2.15676
 Alpha virt. eigenvalues --    2.16764   2.17231   2.17946   2.18875   2.20081
 Alpha virt. eigenvalues --    2.20706   2.22384   2.27214   2.27364   2.28131
 Alpha virt. eigenvalues --    2.30651   2.32260   2.36347   2.37519   2.39538
 Alpha virt. eigenvalues --    2.42385   2.43122   2.44774   2.47329   2.48166
 Alpha virt. eigenvalues --    2.48669   2.50629   2.54279   2.55994   2.57085
 Alpha virt. eigenvalues --    2.59087   2.59689   2.60014   2.60974   2.62586
 Alpha virt. eigenvalues --    2.63740   2.66081   2.69978   2.73637   2.74024
 Alpha virt. eigenvalues --    2.74909   2.75713   2.77074   2.79284   2.80324
 Alpha virt. eigenvalues --    2.81707   2.82179   2.84130   2.84813   2.85344
 Alpha virt. eigenvalues --    2.86483   2.87345   2.89210   2.90370   2.90727
 Alpha virt. eigenvalues --    2.91968   2.92788   2.93836   2.95643   2.97355
 Alpha virt. eigenvalues --    2.97796   2.99091   3.00442   3.01398   3.02105
 Alpha virt. eigenvalues --    3.03638   3.04540   3.05902   3.06211   3.08370
 Alpha virt. eigenvalues --    3.09082   3.10075   3.11701   3.11989   3.13773
 Alpha virt. eigenvalues --    3.15101   3.15391   3.16786   3.17598   3.18737
 Alpha virt. eigenvalues --    3.19466   3.19752   3.20767   3.21848   3.22905
 Alpha virt. eigenvalues --    3.23451   3.25275   3.27790   3.31487   3.33013
 Alpha virt. eigenvalues --    3.33944   3.35398   3.37887   3.39805   3.40125
 Alpha virt. eigenvalues --    3.41197   3.42357   3.43481   3.44768   3.45018
 Alpha virt. eigenvalues --    3.45477   3.46442   3.47801   3.48250   3.50321
 Alpha virt. eigenvalues --    3.53208   3.55507   3.58662   3.59462   3.61925
 Alpha virt. eigenvalues --    3.64646   3.65588   3.66038   3.68131   3.69273
 Alpha virt. eigenvalues --    3.71676   3.72918   3.75993   3.77630   3.80900
 Alpha virt. eigenvalues --    3.81387   3.82212   3.85944   3.87733   3.88772
 Alpha virt. eigenvalues --    3.92968   3.98712   3.99250   4.02726   4.03533
 Alpha virt. eigenvalues --    4.06095   4.08994   4.09173   4.09668   4.11042
 Alpha virt. eigenvalues --    4.12139   4.14125   4.15731   4.17948   4.21375
 Alpha virt. eigenvalues --    4.22943   4.24704   4.27379   4.28031   4.31301
 Alpha virt. eigenvalues --    4.33666   4.34204   4.40607   4.42561   4.46800
 Alpha virt. eigenvalues --    4.47837   4.52502   4.56846   4.67298   4.68881
 Alpha virt. eigenvalues --    4.70301   4.73697   4.78091   4.81521   4.83548
 Alpha virt. eigenvalues --    4.88594   4.92836   5.08784   5.13524   5.16200
 Alpha virt. eigenvalues --    5.20972   5.24073   5.28882   5.30615   5.31876
 Alpha virt. eigenvalues --    5.40429   5.41818   5.50203   5.50903   5.52884
 Alpha virt. eigenvalues --    5.68296   5.81681   5.83552   5.91354   5.96438
 Alpha virt. eigenvalues --    6.07979   6.15698   6.32084   6.36506   6.40074
 Alpha virt. eigenvalues --    6.45308   6.58236   6.63459   6.70048   6.77786
 Alpha virt. eigenvalues --    6.84506   6.84612   6.84831   6.85014   6.85102
 Alpha virt. eigenvalues --    6.85951   6.86021   6.86135   6.86280   6.86464
 Alpha virt. eigenvalues --    6.87606   6.88179   6.90121   6.92104   6.94297
 Alpha virt. eigenvalues --    6.95440   6.97685   6.98090   6.98145   6.99552
 Alpha virt. eigenvalues --    6.99711   7.02776   7.03131   7.03445   7.05784
 Alpha virt. eigenvalues --    7.10642   7.11897   7.13817   7.16102   7.19507
 Alpha virt. eigenvalues --    7.23287   7.23948   7.24996   7.25123   7.25753
 Alpha virt. eigenvalues --    7.26425   7.30394   7.30708   7.33174   7.35493
 Alpha virt. eigenvalues --    7.37819   7.40896   7.44672   7.58999   7.61788
 Alpha virt. eigenvalues --    7.66006   7.99094   8.29258   8.31527   8.33239
 Alpha virt. eigenvalues --    8.35175   8.37325   8.38819   8.40281   8.41335
 Alpha virt. eigenvalues --    8.50436   8.53114   8.55711   8.67084   8.70030
 Alpha virt. eigenvalues --    8.73136   8.74310   8.76930   8.77395   8.78471
 Alpha virt. eigenvalues --    8.83447   8.83970   8.86134   8.90713   8.93441
 Alpha virt. eigenvalues --    8.98907   8.99484   8.99743   9.04024   9.05688
 Alpha virt. eigenvalues --    9.09947   9.35477  22.20895  22.47770  22.83248
 Alpha virt. eigenvalues --   22.85292  22.95243  22.95972  23.08934  23.62933
 Alpha virt. eigenvalues --   43.84991  44.41948  57.17415  57.23973  57.37342
 Alpha virt. eigenvalues --   57.42762  57.48656  57.60432
          Condensed to atoms (all electrons):
               1          2          3          4          5          6
     1  O    7.887479   0.571823  -0.048357  -0.084177  -0.001567   0.018160
     2  C    0.571823   4.646495   0.350397   0.324335  -0.147929   0.001617
     3  C   -0.048357   0.350397   4.623306  -0.033927  -0.008196   0.001144
     4  O   -0.084177   0.324335  -0.033927   7.828602   0.230350  -0.032577
     5  C   -0.001567  -0.147929  -0.008196   0.230350   5.367102   0.287836
     6  C    0.018160   0.001617   0.001144  -0.032577   0.287836   4.985804
     7  C    0.018145   0.000046   0.000243  -0.031668   0.280295   0.003755
     8  C   -0.003463   0.001867  -0.000074   0.009368  -0.041973   0.363840
     9  C   -0.003391   0.002295  -0.000212   0.008902  -0.037707  -0.003310
    10  C    0.000301   0.000245   0.000037   0.000777   0.007657  -0.048611
    11  F   -0.000734   0.008196  -0.000313   0.001876  -0.060778   0.302225
    12  F   -0.000729   0.008897  -0.000619   0.001472  -0.060860   0.003595
    13  F    0.000001   0.000004   0.000000  -0.000060   0.009470  -0.045057
    14  F    0.000001   0.000000   0.000000  -0.000058   0.009334  -0.000506
    15  F   -0.000000   0.000000   0.000000  -0.000000  -0.000945   0.006470
    16  F    0.001265  -0.040161   0.267000   0.001426  -0.000351  -0.000196
    17  H    0.001437  -0.028216   0.413276   0.002392   0.000178   0.000008
    18  H    0.004661  -0.048118   0.411215   0.005278   0.000158  -0.000239
               7          8          9         10         11         12
     1  O    0.018145  -0.003463  -0.003391   0.000301  -0.000734  -0.000729
     2  C    0.000046   0.001867   0.002295   0.000245   0.008196   0.008897
     3  C    0.000243  -0.000074  -0.000212   0.000037  -0.000313  -0.000619
     4  O   -0.031668   0.009368   0.008902   0.000777   0.001876   0.001472
     5  C    0.280295  -0.041973  -0.037707   0.007657  -0.060778  -0.060860
     6  C    0.003755   0.363840  -0.003310  -0.048611   0.302225   0.003595
     7  C    4.997329  -0.002106   0.359426  -0.047551   0.003731   0.302606
     8  C   -0.002106   4.952832  -0.041600   0.376047  -0.037387  -0.000877
     9  C    0.359426  -0.041600   4.954437   0.376054  -0.000865  -0.037604
    10  C   -0.047551   0.376047   0.376054   4.963567   0.005732   0.005654
    11  F    0.003731  -0.037387  -0.000865   0.005732   8.945621  -0.000021
    12  F    0.302606  -0.000877  -0.037604   0.005654  -0.000021   8.945670
    13  F   -0.000522   0.285773   0.006638  -0.040082   0.000987   0.000000
    14  F   -0.045053   0.006647   0.285863  -0.040058   0.000000   0.000999
    15  F    0.006409  -0.042432  -0.042491   0.290887  -0.000020  -0.000020
    16  F    0.000036   0.000019   0.000004  -0.000001  -0.000011   0.000000
    17  H    0.000007   0.000007   0.000000  -0.000000   0.000002  -0.000013
    18  H   -0.000638   0.000018   0.000056  -0.000006  -0.000005   0.000143
              13         14         15         16         17         18
     1  O    0.000001   0.000001  -0.000000   0.001265   0.001437   0.004661
     2  C    0.000004   0.000000   0.000000  -0.040161  -0.028216  -0.048118
     3  C    0.000000   0.000000   0.000000   0.267000   0.413276   0.411215
     4  O   -0.000060  -0.000058  -0.000000   0.001426   0.002392   0.005278
     5  C    0.009470   0.009334  -0.000945  -0.000351   0.000178   0.000158
     6  C   -0.045057  -0.000506   0.006470  -0.000196   0.000008  -0.000239
     7  C   -0.000522  -0.045053   0.006409   0.000036   0.000007  -0.000638
     8  C    0.285773   0.006647  -0.042432   0.000019   0.000007   0.000018
     9  C    0.006638   0.285863  -0.042491   0.000004   0.000000   0.000056
    10  C   -0.040082  -0.040058   0.290887  -0.000001  -0.000000  -0.000006
    11  F    0.000987   0.000000  -0.000020  -0.000011   0.000002  -0.000005
    12  F    0.000000   0.000999  -0.000020   0.000000  -0.000013   0.000143
    13  F    8.951419  -0.000022   0.001062   0.000000  -0.000000   0.000000
    14  F   -0.000022   8.951429   0.001067  -0.000000   0.000000  -0.000000
    15  F    0.001062   0.001067   8.946662   0.000000  -0.000000   0.000000
    16  F    0.000000  -0.000000   0.000000   9.052144  -0.036136  -0.036065
    17  H   -0.000000   0.000000  -0.000000  -0.036136   0.538403  -0.045153
    18  H    0.000000  -0.000000   0.000000  -0.036065  -0.045153   0.567055
 Mulliken charges:
               1
     1  O   -0.360854
     2  C    0.348205
     3  C    0.025080
     4  O   -0.232310
     5  C    0.167925
     6  C    0.156043
     7  C    0.155512
     8  C    0.173492
     9  C    0.173506
    10  C    0.149353
    11  F   -0.168234
    12  F   -0.168291
    13  F   -0.169611
    14  F   -0.169643
    15  F   -0.166649
    16  F   -0.208973
    17  H    0.153809
    18  H    0.141640
 Sum of Mulliken charges =  -0.00000
 Mulliken charges with hydrogens summed into heavy atoms:
               1
     1  O   -0.360854
     2  C    0.348205
     3  C    0.320530
     4  O   -0.232310
     5  C    0.167925
     6  C    0.156043
     7  C    0.155512
     8  C    0.173492
     9  C    0.173506
    10  C    0.149353
    11  F   -0.168234
    12  F   -0.168291
    13  F   -0.169611
    14  F   -0.169643
    15  F   -0.166649
    16  F   -0.208973
 Electronic spatial extent (au):  <R**2>=           3789.0962
 Charge=              0.0000 electrons
 Dipole moment (field-independent basis, Debye):
    X=              2.2299    Y=             -1.9634    Z=             -1.9503  Tot=              3.5540
 Quadrupole moment (field-independent basis, Debye-Ang):
   XX=            -81.9966   YY=            -90.5235   ZZ=            -87.0362
   XY=             -9.0105   XZ=             -1.7521   YZ=              0.4095
 Traceless Quadrupole moment (field-independent basis, Debye-Ang):
   XX=              4.5221   YY=             -4.0047   ZZ=             -0.5174
   XY=             -9.0105   XZ=             -1.7521   YZ=              0.4095
 Octapole moment (field-independent basis, Debye-Ang**2):
  XXX=             52.0117  YYY=              3.0361  ZZZ=             -7.4546  XYY=             10.6403
  XXY=            -37.6426  XXZ=             -7.6176  XZZ=            -10.1000  YZZ=              2.4420
  YYZ=              1.5840  XYZ=              1.3169
 Hexadecapole moment (field-independent basis, Debye-Ang**3):
 XXXX=          -2895.0166 YYYY=          -1011.3874 ZZZZ=           -217.8234 XXXY=           -152.1043
 XXXZ=              3.7843 YYYX=             14.0527 YYYZ=             -0.5388 ZZZX=            -31.0465
 ZZZY=              3.7967 XXYY=           -657.6687 XXZZ=           -517.1848 YYZZ=           -190.5815
 XXYZ=              0.2091 YYXZ=             -0.7516 ZZXY=              5.4731
 N-N= 1.150120687700D+03 E-N=-4.793602287843D+03  KE= 1.050428374011D+03
 No NMR shielding tensors so no spin-rotation constants.
 Leave Link  601 at Thu Aug 29 15:28:49 2024, MaxMem=  8589934592 cpu:               3.4 elap:               0.2
 (Enter /share/apps/g16.b01_avx2/g16/l701.exe)
 ... and contract with generalized density number  0.
 Compute integral first derivatives.
 R6Disp: Adding Grimme-D3 dispersion energy 1st derivatives to the gradient.
   1 Symmetry operations used in ECPInt.
 ECPInt:  NShTT=   17020 NPrTT=   55636 LenC2=   14952 LenP2D=   35066.
 LDataN:  DoStor=T MaxTD1= 7 Len=  274
 D1PCM: PCM CHGder 1st derivatives, ID1Alg=3 FixD1E=F DoIter=F DoCFld=F I1PDM=0.
 GePol: Maximum number of non-zero 1st derivatives   =     217
 Leave Link  701 at Thu Aug 29 15:28:50 2024, MaxMem=  8589934592 cpu:              26.9 elap:               1.1
 (Enter /share/apps/g16.b01_avx2/g16/l702.exe)
 L702 exits ... SP integral derivatives will be done elsewhere.
 Leave Link  702 at Thu Aug 29 15:28:50 2024, MaxMem=  8589934592 cpu:               0.3 elap:               0.0
 (Enter /share/apps/g16.b01_avx2/g16/l703.exe)
 Integral derivatives from FoFJK, PRISM(SPDF).
 Compute integral first derivatives, UseDBF=F ICtDFT=           0.
 Calling FoFJK, ICntrl=      2127 FMM=F ISym2X=0 I1Cent= 0 IOpClX= 0 NMat=1 NMatS=1 NMatT=0.
 FoFJK:  IHMeth= 1 ICntrl=    2127 DoSepK=F KAlg= 0 I1Cent=           0 FoldK=F
 IRaf=         0 NMat=       1 IRICut=       1 DoRegI=T DoRafI=F ISym2E= 0 IDoP0=0 IntGTp=1.
 FoFCou: FMM=F IPFlag=           0 FMFlag=      100000 FMFlg1=         800
         NFxFlg=           0 DoJE=F BraDBF=F KetDBF=F FulRan=T
         wScrn=  0.000000 ICntrl=      2127 IOpCl=  0 I1Cent=           0 NGrid=           0
         NMat0=    1 NMatS0=      1 NMatT0=    0 NMatD0=    1 NMtDS0=    0 NMtDT0=    0
 Symmetry not used in FoFCou.
 Leave Link  703 at Thu Aug 29 15:29:12 2024, MaxMem=  8589934592 cpu:             537.4 elap:              22.4
 (Enter /share/apps/g16.b01_avx2/g16/l716.exe)
 Dipole        = 8.77307922D-01-7.72476654D-01-7.67293382D-01
 ***** Axes restored to original set *****
 -------------------------------------------------------------------
 Center     Atomic                   Forces (Hartrees/Bohr)
 Number     Number              X              Y              Z
 -------------------------------------------------------------------
      1        8           0.030401129    0.074083087    0.049428121
      2        6          -0.050132956   -0.076638759   -0.033011641
      3        6          -0.024458537    0.005255481    0.021408729
      4        8           0.079446952    0.027271284   -0.050464800
      5        6          -0.041828199   -0.029919382    0.010785633
      6        6          -0.004647650   -0.005647516    0.005349893
      7        6          -0.008827396   -0.001056545    0.001004747
      8        6           0.002886861   -0.004524975    0.005007747
      9        6          -0.005243512    0.004098410   -0.003066752
     10        6          -0.004327519   -0.002735605    0.001464186
     11        9          -0.021309180    0.006863983   -0.008817717
     12        9           0.002586838   -0.018548253    0.015042046
     13        9          -0.002542028    0.016836433   -0.014675524
     14        9           0.019894223   -0.007021722    0.007737768
     15        9           0.019444252    0.010949817   -0.007822856
     16        9           0.012859785   -0.009271175    0.009113991
     17        1          -0.004750304   -0.005823938   -0.013025853
     18        1           0.000547240    0.015829374    0.004542284
 -------------------------------------------------------------------
 Cartesian Forces:  Max     0.079446952 RMS     0.025688766
 Leave Link  716 at Thu Aug 29 15:29:12 2024, MaxMem=  8589934592 cpu:               0.4 elap:               0.0
 (Enter /share/apps/g16.b01_avx2/g16/l103.exe)

 GradGradGradGradGradGradGradGradGradGradGradGradGradGradGradGradGradGrad
 Berny optimization.
 FormGI is forming the generalized inverse of G from B-inverse, IUseBI=4.
 Internal  Forces:  Max     0.093947085 RMS     0.016381676
 Search for a local minimum.
 Step number   1 out of a maximum of   90
 All quantities printed in internal units (Hartrees-Bohrs-Radians)
 RMS Force = .16382D-01 SwitMx=.10000D-02 MixMth= 1
 Mixed Optimization -- RFO/linear search
 Second derivative matrix not updated -- first step.
 ITU=  0
     Eigenvalues ---    0.00237   0.00501   0.01295   0.02070   0.02070
     Eigenvalues ---    0.02070   0.02070   0.02070   0.02070   0.02070
     Eigenvalues ---    0.02070   0.02239   0.02997   0.07243   0.07548
     Eigenvalues ---    0.16000   0.16000   0.22528   0.25000   0.25000
     Eigenvalues ---    0.25000   0.25000   0.25000   0.25000   0.25000
     Eigenvalues ---    0.25000   0.25000   0.25000   0.25000   0.25000
     Eigenvalues ---    0.28519   0.37230   0.37230   0.40989   0.41797
     Eigenvalues ---    0.41797   0.45389   0.45389   0.45389   0.45389
     Eigenvalues ---    0.55021   0.55021   0.55021   0.55021   0.55021
     Eigenvalues ---    0.55021   0.66833   0.80209
 RFO step:  Lambda=-3.75460515D-02 EMin= 2.36824221D-03
 Linear search not attempted -- first point.
 Iteration  1 RMS(Cart)=  0.05522798 RMS(Int)=  0.00087489
 Iteration  2 RMS(Cart)=  0.00109245 RMS(Int)=  0.00016101
 Iteration  3 RMS(Cart)=  0.00000251 RMS(Int)=  0.00016100
 Iteration  4 RMS(Cart)=  0.00000000 RMS(Int)=  0.00016100
 ITry= 1 IFail=0 DXMaxC= 1.59D-01 DCOld= 1.00D+10 DXMaxT= 3.00D-01 DXLimC= 3.00D+00 Rises=F
 Variable       Old X    -DE/DX   Delta X   Delta X   Delta X     New X
                                 (Linear)    (Quad)   (Total)
    R1        2.37803  -0.09395   0.00000  -0.11189  -0.11189   2.26614
    R2        2.91018  -0.01768   0.00000  -0.05479  -0.05479   2.85539
    R3        2.70231  -0.04908   0.00000  -0.10968  -0.10968   2.59263
    R4        2.55113   0.01805   0.00000   0.03071   0.03071   2.58184
    R5        2.02201   0.01326   0.00000   0.03236   0.03236   2.05437
    R6        2.02201   0.01642   0.00000   0.04007   0.04007   2.06208
    R7        2.45910   0.05423   0.00000   0.07683   0.07683   2.53593
    R8        2.64826  -0.01173   0.00000  -0.02334  -0.02332   2.62494
    R9        2.64826  -0.01180   0.00000  -0.02349  -0.02346   2.62480
   R10        2.64826  -0.01833   0.00000  -0.03730  -0.03730   2.61096
   R11        2.55113  -0.02403   0.00000  -0.04089  -0.04089   2.51024
   R12        2.64826  -0.01833   0.00000  -0.03730  -0.03730   2.61097
   R13        2.55113  -0.02399   0.00000  -0.04082  -0.04082   2.51031
   R14        2.64826  -0.01820   0.00000  -0.03754  -0.03757   2.61070
   R15        2.55113  -0.02246   0.00000  -0.03822  -0.03822   2.51291
   R16        2.64826  -0.01819   0.00000  -0.03754  -0.03756   2.61070
   R17        2.55113  -0.02246   0.00000  -0.03821  -0.03821   2.51292
   R18        2.55113  -0.02365   0.00000  -0.04023  -0.04023   2.51090
    A1        2.09440   0.02059   0.00000   0.07160   0.07156   2.16596
    A2        2.09440   0.00769   0.00000   0.02675   0.02671   2.12111
    A3        2.09440  -0.02828   0.00000  -0.09836  -0.09840   1.99600
    A4        1.91063  -0.00434   0.00000  -0.01735  -0.01772   1.89291
    A5        1.91063  -0.00979   0.00000  -0.05259  -0.05288   1.85776
    A6        1.91063   0.00407   0.00000   0.02298   0.02311   1.93375
    A7        1.91063   0.00485   0.00000   0.01588   0.01500   1.92563
    A8        1.91063   0.00127   0.00000   0.00855   0.00859   1.91922
    A9        1.91063   0.00394   0.00000   0.02252   0.02277   1.93340
   A10        2.09440  -0.01420   0.00000  -0.04939  -0.04939   2.04501
   A11        2.09440   0.00472   0.00000   0.01552   0.01545   2.10985
   A12        2.09440   0.00440   0.00000   0.01441   0.01434   2.10873
   A13        2.09440  -0.00912   0.00000  -0.02993  -0.02992   2.06447
   A14        2.09440   0.00483   0.00000   0.01770   0.01773   2.11213
   A15        2.09440  -0.00327   0.00000  -0.01182  -0.01184   2.08256
   A16        2.09440  -0.00156   0.00000  -0.00588  -0.00589   2.08850
   A17        2.09440   0.00483   0.00000   0.01769   0.01772   2.11211
   A18        2.09440  -0.00327   0.00000  -0.01183  -0.01184   2.08255
   A19        2.09440  -0.00156   0.00000  -0.00586  -0.00588   2.08852
   A20        2.09440  -0.00046   0.00000  -0.00248  -0.00250   2.09189
   A21        2.09440   0.00124   0.00000   0.00476   0.00477   2.09917
   A22        2.09440  -0.00078   0.00000  -0.00228  -0.00227   2.09213
   A23        2.09440  -0.00044   0.00000  -0.00244  -0.00246   2.09194
   A24        2.09440   0.00120   0.00000   0.00464   0.00465   2.09904
   A25        2.09440  -0.00076   0.00000  -0.00220  -0.00219   2.09221
   A26        2.09440   0.00036   0.00000  -0.00054  -0.00058   2.09381
   A27        2.09440  -0.00016   0.00000   0.00035   0.00037   2.09476
   A28        2.09440  -0.00020   0.00000   0.00019   0.00021   2.09461
    D1       -1.57080   0.00172   0.00000   0.02075   0.02042  -1.55038
    D2        0.52360  -0.00099   0.00000  -0.00263  -0.00210   0.52150
    D3        2.61799   0.00033   0.00000   0.00682   0.00679   2.62478
    D4        1.57080   0.00102   0.00000   0.00420   0.00376   1.57455
    D5       -2.61799  -0.00170   0.00000  -0.01918  -0.01876  -2.63675
    D6       -0.52360  -0.00037   0.00000  -0.00972  -0.00987  -0.53347
    D7        0.00000  -0.00001   0.00000  -0.00152  -0.00134  -0.00134
    D8       -3.14159   0.00069   0.00000   0.01502   0.01484  -3.12675
    D9        1.57080   0.00050   0.00000   0.00836   0.00856   1.57936
   D10       -1.57080  -0.00054   0.00000  -0.00897  -0.00917  -1.57996
   D11        3.14159  -0.00136   0.00000  -0.02309  -0.02306   3.11853
   D12       -0.00000  -0.00140   0.00000  -0.02370  -0.02364  -0.02364
   D13       -0.00000  -0.00032   0.00000  -0.00576  -0.00577  -0.00578
   D14        3.14159  -0.00036   0.00000  -0.00636  -0.00635   3.13524
   D15       -3.14159   0.00137   0.00000   0.02327   0.02322  -3.11837
   D16       -0.00000   0.00139   0.00000   0.02360   0.02353   0.02353
   D17        0.00000   0.00033   0.00000   0.00593   0.00595   0.00595
   D18        3.14159   0.00035   0.00000   0.00626   0.00626  -3.13534
   D19        0.00000   0.00013   0.00000   0.00234   0.00241   0.00241
   D20       -3.14159   0.00016   0.00000   0.00280   0.00284  -3.13875
   D21       -3.14159   0.00017   0.00000   0.00295   0.00299  -3.13860
   D22        0.00000   0.00020   0.00000   0.00340   0.00342   0.00343
   D23        0.00000  -0.00015   0.00000  -0.00269  -0.00276  -0.00276
   D24        3.14159  -0.00018   0.00000  -0.00307  -0.00312   3.13847
   D25       -3.14159  -0.00017   0.00000  -0.00302  -0.00307   3.13853
   D26        0.00000  -0.00020   0.00000  -0.00340  -0.00343  -0.00343
   D27        0.00000   0.00005   0.00000   0.00090   0.00093   0.00093
   D28       -3.14159   0.00012   0.00000   0.00209   0.00208  -3.13951
   D29       -3.14159   0.00002   0.00000   0.00044   0.00050  -3.14109
   D30        0.00000   0.00009   0.00000   0.00164   0.00165   0.00165
   D31       -0.00000  -0.00004   0.00000  -0.00073  -0.00076  -0.00076
   D32        3.14159  -0.00011   0.00000  -0.00192  -0.00191   3.13968
   D33        3.14159  -0.00002   0.00000  -0.00034  -0.00040   3.14119
   D34       -0.00000  -0.00009   0.00000  -0.00154  -0.00155  -0.00155
         Item               Value     Threshold  Converged?
 Maximum Force            0.093947     0.000450     NO 
 RMS     Force            0.016382     0.000300     NO 
 Maximum Displacement     0.159136     0.001800     NO 
 RMS     Displacement     0.055537     0.001200     NO 
 Predicted change in Energy=-2.027390D-02
 Lowest energy point so far.  Saving SCF results.
 GradGradGradGradGradGradGradGradGradGradGradGradGradGradGradGradGradGrad

 Leave Link  103 at Thu Aug 29 15:29:12 2024, MaxMem=  8589934592 cpu:               0.8 elap:               0.0
 (Enter /share/apps/g16.b01_avx2/g16/l202.exe)
                          Input orientation:                          
 ---------------------------------------------------------------------
 Center     Atomic      Atomic             Coordinates (Angstroms)
 Number     Number       Type             X           Y           Z
 ---------------------------------------------------------------------
      1          8           0        0.708550   -0.149238   -3.059394
      2          6           0        1.163702    0.808696   -2.499701
      3          6           0        2.410807    1.536615   -2.944674
      4          8           0        0.582653    1.321470   -1.367572
      5          6           0       -0.519625    0.706349   -0.912094
      6          6           0       -0.429075   -0.329388    0.009066
      7          6           0       -1.781977    1.103323   -1.334176
      8          6           0       -1.563483   -0.946516    0.500252
      9          6           0       -2.920738    0.490931   -0.847151
     10          6           0       -2.810659   -0.534951    0.071573
     11          9           0        0.768303   -0.730495    0.421313
     12          9           0       -1.892204    2.087014   -2.220090
     13          9           0       -1.459741   -1.934543    1.384188
     14          9           0       -4.122102    0.885309   -1.258860
     15          9           0       -3.903848   -1.124546    0.543578
     16          9           0        3.490366    0.950425   -2.346692
     17          1           0        2.466964    1.419334   -4.023995
     18          1           0        2.361417    2.592067   -2.672070
 ---------------------------------------------------------------------
                    Distance matrix (angstroms):
                    1          2          3          4          5
     1  O    0.000000
     2  C    1.199190   0.000000
     3  C    2.398529   1.511006   0.000000
     4  O    2.245237   1.371959   2.423982   0.000000
     5  C    2.617506   2.316152   3.661714   1.341957   0.000000
     6  C    3.277512   3.182151   4.502385   2.375722   1.389059
     7  C    3.278416   3.181553   4.512304   2.374906   1.388984
     8  C    4.297541   4.417921   5.816222   3.638465   2.411706
     9  C    4.298321   4.417527   5.823954   3.637909   2.411632
    10  C    4.726157   4.920608   6.375959   4.126985   2.785187
    11  F    3.529412   3.325323   4.378067   2.728578   2.345475
    12  F    3.531172   3.324280   4.398167   2.727226   2.345435
    13  F    5.256826   5.430692   6.765288   4.727068   3.623678
    14  F    5.258080   5.430035   6.778280   4.726180   3.623550
    15  F    5.933536   6.219247   7.689249   5.455656   4.113895
    16  F    3.075013   2.335994   1.366253   3.090493   4.265873
    17  H    2.546153   2.096388   1.087126   3.258342   4.371726
    18  H    3.224398   2.155143   1.091207   2.545610   3.867020
                    6          7          8          9         10
     6  C    0.000000
     7  C    2.384806   0.000000
     8  C    1.381663   2.759475   0.000000
     9  C    2.759423   1.381664   2.392465   0.000000
    10  C    2.391256   2.391288   1.381521   1.381523   0.000000
    11  F    1.328363   3.598411   2.343101   4.087775   3.601323
    12  F    3.598455   1.328398   4.087863   2.343145   3.601386
    13  F    2.351544   4.089250   1.329776   3.605039   2.346656
    14  F    4.089202   2.351465   3.605078   1.329780   2.346716
    15  F    3.604446   3.604400   2.347527   2.347424   1.328711
    16  F    4.748635   5.370863   6.102857   6.600153   6.910664
    17  H    5.264091   5.038700   6.504657   6.323101   6.960332
    18  H    4.848735   4.601525   6.163605   5.970449   6.637484
                   11         12         13         14         15
    11  F    0.000000
    12  F    4.689741   0.000000
    13  F    2.709435   5.417635   0.000000
    14  F    5.417552   2.709336   4.693126   0.000000
    15  F    4.690333   4.690276   2.708575   2.708493   0.000000
    16  F    4.230481   5.502720   6.837110   7.690078   8.205704
    17  H    5.221875   4.764685   7.477697   7.165679   8.241438
    18  H    4.811075   4.307279   7.179462   6.851730   7.962860
                   16         17         18
    16  F    0.000000
    17  H    2.020042   0.000000
    18  H    2.018759   1.792803   0.000000
 Stoichiometry    C8H2F6O2
 Framework group  C1[X(C8H2F6O2)]
 Deg. of freedom    48
 Full point group                 C1      NOp   1
 RotChk:  IX=0 Diff= 5.01D-03
 Largest Abelian subgroup         C1      NOp   1
 Largest concise Abelian subgroup C1      NOp   1
                         Standard orientation:                         
 ---------------------------------------------------------------------
 Center     Atomic      Atomic             Coordinates (Angstroms)
 Number     Number       Type             X           Y           Z
 ---------------------------------------------------------------------
      1          8           0        2.017716   -0.307996    1.508670
      2          6           0        2.416944   -0.346339    0.378536
      3          6           0        3.873609   -0.476495   -0.001366
      4          8           0        1.559963   -0.252227   -0.688702
      5          6           0        0.253181   -0.116750   -0.415175
      6          6           0       -0.319267    1.141061   -0.274818
      7          6           0       -0.566077   -1.230914   -0.285834
      8          6           0       -1.669656    1.284270   -0.020001
      9          6           0       -1.917298   -1.095317   -0.031252
     10          6           0       -2.469246    0.164204    0.101276
     11          9           0        0.446603    2.220570   -0.387301
     12          9           0       -0.038785   -2.443933   -0.409077
     13          9           0       -2.202841    2.495678    0.108481
     14          9           0       -2.688555   -2.172193    0.086281
     15          9           0       -3.768719    0.298189    0.343954
     16          9           0        4.411651    0.776372   -0.087864
     17          1           0        4.350978   -1.038224    0.797648
     18          1           0        3.980260   -0.994465   -0.955862
 ---------------------------------------------------------------------
 Rotational constants (GHZ):           0.8937217           0.3418263           0.2627206
 Leave Link  202 at Thu Aug 29 15:29:12 2024, MaxMem=  8589934592 cpu:               0.0 elap:               0.0
 (Enter /share/apps/g16.b01_avx2/g16/l301.exe)
 Standard basis: def2TZVP (5D, 7F)
 Ernie: Thresh=  0.10000D-02 Tol=  0.10000D-05 Strict=F.
 There are   588 symmetry adapted cartesian basis functions of A   symmetry.
 There are   508 symmetry adapted basis functions of A   symmetry.
   508 basis functions,   832 primitive gaussians,   588 cartesian basis functions
    60 alpha electrons       60 beta electrons
       nuclear repulsion energy      1166.9304885431 Hartrees.
 IExCor= 1009 DFT=T Ex+Corr=PBE1PBE ExCW=0 ScaHFX=  0.250000
 ScaDFX=  0.750000  0.750000  1.000000  1.000000 ScalE2=  1.000000  1.000000
 IRadAn=  99590 IRanWt=     -1 IRanGd=            0 ICorTp=0 IEmpDi=131
 NAtoms=   18 NActive=   18 NUniq=   18 SFac= 1.00D+00 NAtFMM=   60 NAOKFM=F Big=F
 Integral buffers will be    131072 words long.
 Raffenetti 2 integral format.
 Two-electron integral symmetry is turned on.
 R6Disp:  Grimme-D3 Dispersion energy=       -0.0092693261 Hartrees.
 Nuclear repulsion after empirical dispersion term =     1166.9212192170 Hartrees.
 ------------------------------------------------------------------------------
 Polarizable Continuum Model (PCM)
 =================================
 Model                : PCM.
 Atomic radii         : UFF (Universal Force Field).
 Polarization charges : Total charges.
 Charge compensation  : None.
 Solution method      : On-the-fly selection.
 Cavity type          : Scaled VdW (van der Waals Surface) (Alpha=1.100).
 Cavity algorithm     : GePol (No added spheres)
                        Default sphere list used, NSphG=   18.
                        Lebedev-Laikov grids with approx.  5.0 points / Ang**2.
                        Smoothing algorithm: York/Karplus (Gamma=1.0000).
                        Polarization charges: spherical gaussians, with
                                              point-specific exponents (IZeta= 3).
                        Self-potential: point-specific (ISelfS= 7).
                        Self-field    : sphere-specific E.n sum rule (ISelfD= 2).
 1st derivatives      : Analytical E(r).r(x)/FMM algorithm (CHGder, D1EAlg=3).
                        Cavity 1st derivative terms included.
 Solvent              : Water, Eps=  78.355300 Eps(inf)=   1.777849
 ------------------------------------------------------------------------------
 Spheres list:
 ISph  on   Nord     Re0    Alpha      Xe            Ye            Ze
    1   O      1    1.7500  1.100      2.017716     -0.307996      1.508670
    2   C      2    1.9255  1.100      2.416944     -0.346339      0.378536
    3   C      3    1.9255  1.100      3.873609     -0.476495     -0.001366
    4   O      4    1.7500  1.100      1.559963     -0.252227     -0.688702
    5   C      5    1.9255  1.100      0.253181     -0.116750     -0.415175
    6   C      6    1.9255  1.100     -0.319267      1.141061     -0.274818
    7   C      7    1.9255  1.100     -0.566077     -1.230914     -0.285834
    8   C      8    1.9255  1.100     -1.669656      1.284270     -0.020001
    9   C      9    1.9255  1.100     -1.917298     -1.095317     -0.031252
   10   C     10    1.9255  1.100     -2.469246      0.164204      0.101276
   11   F     11    1.6820  1.100      0.446603      2.220570     -0.387301
   12   F     12    1.6820  1.100     -0.038785     -2.443933     -0.409077
   13   F     13    1.6820  1.100     -2.202841      2.495678      0.108481
   14   F     14    1.6820  1.100     -2.688555     -2.172193      0.086281
   15   F     15    1.6820  1.100     -3.768719      0.298189      0.343954
   16   F     16    1.6820  1.100      4.411651      0.776372     -0.087864
   17   H     17    1.4430  1.100      4.350978     -1.038224      0.797648
   18   H     18    1.4430  1.100      3.980260     -0.994465     -0.955862
 ------------------------------------------------------------------------------
[...]
 4,0.4031811,-0.1287903,0.0995497,-0.1014174,0.1743377,0.1725711,-0.029
 7231,0.0250836,-0.2233149,1.2457923,-0.6014192,0.1372456,-0.6954594,0.
 4684535,0.0119509,-0.0523263,0.0415557,-0.0755507,1.2417003,-0.7209805
 ,0.0580235,-0.6975763,0.5161178,1.3857064,-0.645712,0.1701603,-0.59609
 27,0.3048264,-0.0500932,0.1793056,-0.0368587,0.0748331,1.2367357,0.517
 6104,-0.5233196,0.5325625,0.4424919,-0.3098858,-0.5061546,-0.2983574,0
 .3606476,-1.2272874,0.5052939,-0.1841823,0.4831224,-0.4177558,0.154933
 1,-0.1308104,0.1352425,-0.1708974,-0.2240817,0.0994018,-0.0310308,0.14
 69364,-1.1429117,0.6014069,-0.0780468,0.6377011,-0.4594797,-0.2119136,
 0.0909828,-0.030774,0.0462866,-1.1551317,0.6874912,-0.0088555,0.645674
 9,-0.4984724,-1.3308705,0.5208245,-0.0917659,0.5347906,-0.4097316,0.11
 20253,-0.1404711,0.1227945,-0.134666,-1.157209,-0.465779,0.4887712,-0.
 4882858,-0.4194729,0.3017747,0.4652512,0.2773478,-0.340417,-0.3964662,
 -0.1670065,-0.038229,-0.2705684,-0.8646476,-0.2822234,-0.1232985,-0.36
 82671,-0.4902133,0.0007333,0.0410016,0.0078932,-0.026387,-0.0187507,-0
 .0173601,-0.0564736,-0.0000545,0.1004812,0.0731845,-0.0328972,-0.03476
 18,-0.0516049,0.0244363,0.0581348,-0.0395473,-0.0307128,-0.0093069\Pol
 ar=147.2081407,2.0845805,122.4386542,-18.7219113,-22.0491184,103.31535
 79\Quadrupole=2.4404418,-5.2569985,2.8165566,-0.1441186,-3.8275209,-1.
 1827714\PG=C01 [X(C8H2F6O2)]\NImag=0\\0.15702993,0.22651472,0.61942145
 ,0.09427069,0.33172244,0.25291264,-0.18548570,-0.21540265,-0.09950852,
 0.53730108,-0.20195644,-0.55403431,-0.25284920,0.26914672,0.76500202,-
 0.08739688,-0.24168917,-0.21978195,-0.03875138,0.25103836,0.48981263,0
 .00218343,-0.01857748,-0.00090083,-0.17012056,-0.03279668,0.03940876,0
 .52161482,-0.02712390,-0.01480805,-0.00711890,-0.05610825,-0.10097214,
 0.04311615,-0.04474642,0.52454297,-0.00886687,-0.01498103,0.01423194,0
 .01835522,0.02247850,-0.09011358,0.01586220,-0.01411839,0.56277226,0.0
 3013495,0.02283470,0.01793182,-0.11777175,-0.01030655,0.04966294,-0.01
 498470,0.01254394,0.03569150,0.36906942,0.01323306,-0.03386686,-0.0673
 1628,0.00078463,-0.10872083,-0.04810148,-0.00844908,0.00885827,0.00571
 817,0.09725873,0.27016370,0.00856013,-0.07721283,-0.05191490,0.0596745
 0,-0.03722411,-0.14332700,0.01615764,-0.01386812,-0.01622637,-0.180266
 58,0.06314578,0.29515700,0.00087482,-0.01325809,-0.01630590,-0.0496606
 4,0.00894351,0.04916477,0.00308724,-0.00168819,0.00266105,-0.19978307,
 -0.07289006,0.05614603,0.70417563,0.00162158,-0.01041708,-0.00713667,0
 .00248247,0.02218125,0.01970420,-0.00170398,-0.00027032,-0.00622976,-0
 .08041811,-0.13030242,0.03609596,-0.05708369,0.56476365,-0.00267117,0.
 00637599,0.00406635,0.04297241,0.01360450,-0.02857162,0.00242685,-0.00
 529299,0.00027210,0.04931568,0.02989892,-0.08142757,-0.06567787,-0.245
 34640,0.31490649,-0.00001014,0.00552390,0.00288298,0.00364795,-0.01254
 630,-0.00668325,-0.00055896,0.00176553,0.00017501,-0.01656610,-0.03417
 998,0.03153998,-0.11417250,0.05498346,-0.02724143,0.72752213,0.0008578
 0,-0.00111777,-0.00071471,0.00188935,0.00096436,-0.00013648,-0.0001736
 4,-0.00063145,-0.00046069,-0.01078232,-0.01642386,0.01476768,-0.026906
 11,-0.25983893,0.12676128,-0.03793536,0.56852659,0.00115101,0.00003808
 ,-0.00016509,-0.00063509,0.00165793,-0.00128608,0.00016823,0.00040669,
 0.00039235,0.00633866,0.01587219,-0.00462207,0.02538104,0.11559199,-0.
 13513843,-0.06378035,-0.26240077,0.30206985,0.00233412,0.00219874,-0.0
 0013828,-0.00020292,-0.00392221,-0.00719736,0.00016979,-0.00052085,0.0
 0073387,-0.04785736,0.00397430,0.00834033,-0.29435661,0.04795862,0.009
 41610,0.03669967,0.07937038,-0.05349201,0.72173647,-0.00008633,0.00369
 768,0.00247967,-0.00022171,-0.00708496,-0.00740317,0.00063012,0.001265
 37,0.00176390,-0.02854277,0.01033145,0.00942048,0.12939950,-0.13804446
 ,0.02661411,0.02822464,-0.01655128,0.00635138,-0.03958935,0.57026071,0
 .00002255,-0.00105668,-0.00135166,0.00200300,0.00242273,0.00348798,-0.
 00048626,-0.00046931,-0.00129612,0.02261657,-0.00302710,0.00222900,-0.
 04352262,0.04065510,-0.08016435,-0.02245806,-0.00013766,0.00439595,-0.
 06355518,-0.26564379,0.30627751,0.00092432,0.00025521,-0.00069495,-0.0
 0103352,0.00016207,0.00045340,0.00000146,-0.00007346,0.00001497,-0.000
 50660,0.00476626,-0.00362971,0.05149617,-0.07085637,0.03772316,-0.2608
 5072,-0.03401293,0.05038680,-0.07969080,-0.00082760,0.01342444,0.72339
 518,0.00079936,-0.00029976,-0.00126648,-0.00194174,0.00000596,0.002195
 78,-0.00028602,-0.00032511,-0.00027841,0.00461131,-0.00055862,0.001635
 09,-0.02153251,-0.01570980,0.01434207,-0.12238391,-0.14076643,0.066188
 03,-0.00051799,-0.00180756,0.00538549,-0.03905504,0.57646005,-0.000413
 19,0.00053145,0.00067876,0.00089135,-0.00168827,-0.00102286,0.00010561
 ,0.00047921,0.00020752,-0.00283589,0.00319122,0.00389848,0.00686176,0.
 02159969,-0.01267935,0.10452073,0.05292586,-0.11035529,0.01296852,0.00
 600720,0.00223138,-0.06475621,-0.27053702,0.30056787,0.00010294,-0.001
 21364,-0.00131753,-0.00274194,0.00199986,0.00370854,-0.00007725,-0.000
 56479,-0.00014112,0.00441842,0.00240881,-0.00278496,-0.05385151,0.0195
 7246,-0.00435436,-0.02006077,-0.02413923,0.01876388,-0.26336435,-0.119
 61598,0.10299512,0.03694609,0.02745470,-0.02212939,0.73002747,-0.00093
 863,-0.00063062,0.00046027,0.00046940,0.00091378,0.00152589,-0.0000377
 0,0.00039437,-0.00017688,0.00531803,-0.00221723,0.00243494,-0.03001242
 ,0.05578787,-0.02982153,-0.02418050,-0.04291593,0.03422319,-0.03136452
 ,-0.13674521,0.05068231,0.07644055,-0.01583412,-0.00142127,-0.04372197
 ,0.57094118,0.00063607,0.00019826,0.00005697,-0.00143490,-0.00062790,-
 0.00115990,0.00005500,0.00004940,0.00029340,-0.00198132,0.00356217,0.0
 0316538,0.02646663,-0.03591555,0.02109489,0.01935127,0.03471567,-0.016
 42752,0.04954331,0.06358269,-0.10948772,-0.05273705,0.00592983,0.00459
 775,-0.06348099,-0.26748386,0.29925374,-0.00024751,-0.00134964,-0.0012
 7422,-0.00129406,0.00241954,0.00370414,-0.00005759,-0.00060867,-0.0003
 0641,0.00443231,0.00026609,-0.00329066,-0.02653625,0.03160585,-0.01523
 413,-0.05782067,-0.03083597,0.02758697,0.05391311,-0.02300578,0.006267
 79,-0.29106549,0.13548566,-0.04887623,-0.11158056,-0.02482186,0.022820
 43,0.72848540,0.00056084,-0.00036939,-0.00077617,-0.00061918,0.0010084
 0,0.00084622,-0.00010190,-0.00037740,-0.00021157,0.00114529,-0.0003331
 5,-0.00298680,0.03186366,-0.04115649,0.02598936,0.02128053,0.05899139,
 -0.03875467,-0.07534050,-0.01845297,0.02269608,0.04685399,-0.13996994,
 0.04150067,0.06406908,-0.26498929,0.11536135,-0.03763737,0.57311938,-0
 .00076581,0.00020624,0.00076005,0.00122450,-0.00018923,-0.00101460,0.0
 0011466,0.00013730,0.00012823,-0.00164548,-0.00162145,-0.00075551,-0.0
 1490286,0.02481618,-0.00625839,-0.00458751,-0.03158330,0.01985101,0.03
 801445,0.01463125,-0.01476212,0.00592485,0.02825001,-0.07870914,-0.031
 70574,0.12894640,-0.13537334,-0.06682227,-0.26730662,0.30247800,-0.000
 43313,-0.00314590,-0.00039264,-0.00063453,0.00507299,0.00275758,-0.000
 04585,-0.00057428,-0.00044962,0.00881287,-0.00176827,-0.00255764,-0.02
 305208,0.01177221,-0.00338110,-0.30630559,0.11304363,-0.03079485,-0.00
 151251,-0.00420682,0.00339462,-0.05700396,0.03272864,-0.01051005,0.006
 05671,-0.00039638,-0.00107322,0.00612431,-0.00473507,0.00266426,0.3758
 6521,-0.00018198,0.00106386,0.00060117,0.00091144,-0.00156003,-0.00202
 815,0.00022496,0.00020024,0.00023421,-0.00092346,0.00220519,-0.0033078
 8,0.04818517,-0.01758952,0.00892698,0.11263986,-0.11716675,0.03286324,
 -0.00614141,-0.00003114,0.00378445,-0.00578064,0.00641341,0.00216784,-
 0.00162742,0.00156447,-0.00247818,-0.00144852,-0.00366565,0.00534061,-
 0.15061538,0.12646430,-0.00076835,0.00065828,-0.00101479,0.00021608,0.
 00058520,0.00051985,-0.00001439,-0.00050133,-0.00011676,-0.00094870,-0
 .00398818,-0.00342559,-0.02545809,0.01292316,0.00283955,-0.03008098,0.
 03236531,-0.05302911,0.00448427,0.00354285,0.00206953,0.01282888,-0.00
 328924,0.00899211,-0.00018084,-0.00250234,-0.00120373,0.00079380,0.005
 66839,0.00115600,0.04130570,-0.04192949,0.04397194,-0.00011735,0.00012
 049,0.00050882,0.00085629,-0.00027849,-0.00076775,0.00000590,0.0001475
 2,-0.00008888,0.00382462,0.00125866,-0.00146365,0.00031530,0.03882172,
 -0.02323076,-0.00677747,-0.00419432,0.00417503,-0.07577289,0.02184705,
 -0.00788105,0.00308870,-0.00047576,-0.00058295,0.00640267,-0.03070155,
 0.01931026,-0.00778893,0.00410586,-0.00054936,-0.00070034,0.00259995,-
 0.00134164,0.07019015,0.00017889,-0.00103109,-0.00109142,-0.00086864,0
 .00238404,0.00192196,-0.00000692,-0.00093541,-0.00031500,0.00096779,0.
 00221415,-0.00646193,0.00249757,-0.03306541,0.02528599,-0.00208251,0.0
 0386017,0.00106082,0.02269575,-0.27586967,0.14439648,0.00080435,0.0036
 4958,-0.00414431,0.00770584,-0.03711583,0.02752250,0.00083378,0.006001
 16,-0.00086970,0.00349785,-0.00265139,0.00156737,-0.02993718,0.3369437
 0,-0.00058964,0.00038208,0.00078859,0.00153327,-0.00052623,-0.00152930
 ,0.00009400,0.00030588,0.00011121,-0.00177896,-0.00467098,-0.00149200,
 -0.00176064,0.01927168,-0.00367380,0.00301461,0.00099011,0.00340104,-0
 .00807563,0.14419595,-0.12558842,-0.00135445,-0.00389871,-0.00019400,-
 0.00427177,0.03320882,-0.01102243,0.00133611,-0.00142191,0.00531600,-0
 .00194469,0.00170711,-0.00007745,0.01158692,-0.19026182,0.13899910,0.0
 0005059,0.00020343,0.00025575,0.00022486,-0.00051981,-0.00070916,-0.00
 004011,0.00012150,0.00000110,-0.00000704,-0.00151139,0.00167532,-0.007
 49325,0.00359249,-0.00055084,0.00644059,-0.03060221,0.01905145,0.00279
 973,-0.00050727,-0.00058347,-0.07466053,0.02168277,-0.00742766,-0.0066
 7364,-0.00399339,0.00414019,0.00103284,0.03855575,-0.02260581,0.006602
 17,-0.00194235,-0.00058438,0.00005971,0.00070384,-0.00029122,0.0667762
 7,-0.00023088,0.00113913,0.00166849,0.00180158,-0.00230244,-0.00393137
 ,0.00008696,0.00065651,0.00030499,-0.00334328,-0.00118695,0.00439734,0
 .00115076,0.00420152,-0.00022631,0.00817842,-0.03548907,0.02538596,-0.
 00063675,0.00355106,-0.00387240,0.02173014,-0.27850548,0.14573034,-0.0
 0190782,0.00468527,0.00022239,-0.00065460,-0.03547833,0.02691310,-0.00
 460284,0.00526769,-0.00588000,0.00078962,-0.00742460,0.00508784,-0.028
 17923,0.33894189,0.00017927,-0.00083839,-0.00098631,-0.00135632,0.0014
 9381,0.00264903,-0.00009365,-0.00036495,-0.00019200,0.00232790,0.00141
 570,-0.00241437,0.00101623,-0.00030145,0.00474630,-0.00481346,0.031319
 98,-0.01019103,-0.00042072,-0.00388857,-0.00045688,-0.00747182,0.14580
 467,-0.12402182,0.00283364,0.00049579,0.00366993,0.00148471,0.02099016
 ,-0.00497309,0.00108140,-0.00636007,-0.00182146,-0.00034949,0.00506536
 ,-0.00210819,0.01059157,-0.19025811,0.13708754,-0.00020804,0.00146972,
 0.00180231,0.00172606,-0.00281948,-0.00480553,0.00026027,0.00065044,0.
 00056528,-0.00622296,0.00121008,0.00372822,0.00432662,-0.00330082,0.00
 202902,0.00521877,-0.00165160,-0.00035053,-0.05388968,0.03227117,-0.01
 057284,-0.00029743,-0.00456472,0.00342190,-0.30852225,0.11520436,-0.02
 999532,-0.02682252,0.01035328,-0.00115792,-0.00836884,0.00407143,-0.00
 112831,0.00635304,-0.00459835,0.00098402,-0.00078654,0.00353963,-0.001
 95722,0.37713564,0.00026136,-0.00023901,-0.00064177,-0.00084621,0.0004
 2694,0.00113837,-0.00004496,-0.00022176,-0.00005727,0.00059786,0.00079
 534,-0.00087774,-0.00086642,-0.00383763,0.00534702,-0.00150476,0.00193
 746,-0.00257954,-0.00646190,0.00629900,0.00207593,-0.00655989,0.000233
 50,0.00364654,0.11507077,-0.11715003,0.03291305,0.04974161,-0.01634634
 ,0.00763331,0.00406223,-0.00154498,0.00090922,-0.00194644,0.00538723,-
 0.00641838,0.00257385,-0.00279816,0.00170248,-0.15208944,0.12493552,-0
 .00001800,-0.00004269,-0.00003032,0.00009862,0.00002035,0.00014899,-0.
 00002717,0.00005996,-0.00001998,0.00067085,-0.00019771,0.00051496,0.00
 070707,0.00552992,0.00089348,-0.00037916,-0.00268391,-0.00116481,0.013
 23681,-0.00357368,0.00846052,0.00472455,0.00331812,0.00173523,-0.02991
 190,0.03300428,-0.05121533,-0.02523341,0.01344036,0.00377168,-0.001109
 68,0.00095492,0.00051190,-0.00057616,-0.00609347,-0.00165217,-0.001372
 28,0.00156065,-0.00013203,0.04037265,-0.04052927,0.04064521,-0.0003305
 5,0.00159172,0.00176872,0.00251613,-0.00289005,-0.00423223,0.00015814,
 0.00079994,0.00037734,-0.00674054,-0.00140074,0.00443517,0.00281396,-0
 .00042053,-0.00043497,0.00435668,0.00575372,-0.00369500,-0.00099423,0.
 00521703,-0.00220477,-0.05079555,-0.03240442,0.02897152,-0.01749139,-0
 .00714321,0.00840887,-0.27117721,-0.10057190,0.09699204,-0.00575678,0.
 00026819,0.00068584,0.00012531,-0.00283981,0.00180549,0.00572056,0.002
 71840,-0.00332401,0.01061590,-0.00214377,-0.00117317,0.32753776,-0.000
 13682,0.00089922,0.00088668,0.00121766,-0.00169025,-0.00218053,0.00008
 523,0.00043531,0.00021753,-0.00358651,-0.00031138,0.00269635,-0.000294
 08,0.00140640,-0.00246560,0.00287440,-0.00370861,0.00453023,0.00812324
 ,0.00026161,0.00157561,0.00611136,0.00655773,0.00036291,-0.04596719,-0
 .01645389,0.02245254,-0.10046391,-0.11825948,0.06490013,-0.00044433,0.
 00120901,-0.00044034,-0.00205908,-0.00291850,0.00234721,-0.00012641,0.
 00525772,-0.00658007,0.00083496,0.00192382,-0.00474033,0.13412147,0.12
 573291,0.00031151,-0.00067610,-0.00087069,-0.00137661,0.00111684,0.001
 92320,-0.00009201,-0.00031193,-0.00016628,0.00329540,0.00105242,-0.001
 14077,-0.00045814,-0.00232066,-0.00124419,-0.00177542,0.00424281,0.002
 38973,-0.00392789,0.00203699,0.00392356,0.00515132,0.00616216,0.004143
 48,0.03198311,0.01648151,-0.00621400,0.09702736,0.06490272,-0.09159444
 ,0.00115775,-0.00049402,0.00052816,0.00125199,0.00240059,-0.00131014,-
 0.00159712,-0.00706035,-0.00087100,-0.00286007,-0.00428275,-0.00246501
 ,-0.12835421,-0.08354493,0.09296194,-0.00873550,-0.00836502,0.00180768
 ,0.00226851,-0.02457150,-0.02267963,-0.06881786,-0.02372567,-0.0169112
 4,-0.00368981,-0.00221255,0.00108283,0.00219515,0.00029983,-0.00168545
 ,-0.00026911,0.00001178,-0.00009730,0.00004903,-0.00024901,0.00013816,
 0.00003827,0.00024150,-0.00008289,0.00022880,-0.00009615,0.00003866,0.
 00018311,0.00009518,-0.00011640,0.00008968,-0.00009901,0.00007167,-0.0
 0004812,0.00016312,-0.00015889,-0.00001757,-0.00021047,0.00013735,-0.0
 0022895,0.00008938,-0.00000644,-0.00027822,-0.00013766,0.00014196,0.06
 302657,-0.01243179,-0.00856430,0.00159428,0.00292434,-0.02583298,-0.02
 607462,-0.02582132,-0.20310585,-0.09873318,-0.00338700,0.00107482,0.00
 418773,0.00196032,0.00141958,-0.00048312,-0.00021427,0.00014952,-0.000
 33262,0.00012096,-0.00064213,0.00024662,0.00001109,0.00033292,-0.00021
 644,0.00030929,-0.00016887,0.00002204,0.00028669,0.00016910,-0.0001356
 3,0.00012917,-0.00010372,0.00021782,-0.00005622,0.00034786,-0.00018772
 ,-0.00002184,-0.00030794,0.00017955,-0.00035272,0.00013171,-0.00001573
 ,-0.00041167,-0.00021265,0.00018608,0.04847566,0.26856432,-0.00163592,
 -0.00190572,0.00174365,0.00134222,-0.00184236,-0.00209675,-0.01889460,
 -0.10076461,-0.13690246,0.00025885,0.00317120,0.00261129,-0.00033786,0
 .00101449,0.00101732,0.00004192,0.00009217,-0.00018731,0.00007491,-0.0
 0027467,0.00007557,0.00001488,0.00006843,-0.00008928,0.00004054,-0.000
 05742,-0.00004913,0.00006398,0.00007198,-0.00001848,0.00000043,-0.0000
 0440,0.00011414,-0.00000471,0.00010251,0.00000820,-0.00000656,-0.00008
 533,0.00003946,-0.00011317,0.00002951,-0.00000277,-0.00008220,-0.00004
 932,0.00002534,0.02750699,0.15272695,0.15621154,0.00268296,-0.00146749
 ,0.00169574,-0.02345187,0.01655522,-0.00442493,-0.22185712,0.13130605,
 -0.02001561,-0.00231236,-0.00187393,0.00138223,0.00043532,-0.00023611,
 0.00093653,-0.00044492,0.00018664,-0.00003051,0.00011709,-0.00022891,0
 .00004087,0.00000868,0.00004708,-0.00007255,0.00010370,-0.00007067,0.0
 0000325,0.00012273,0.00006277,-0.00002740,0.00015753,-0.00004920,0.000
 07516,-0.00003430,0.00016537,-0.00006016,-0.00002527,-0.00012573,0.000
 06601,-0.00011038,0.00003998,-0.00000945,-0.00014909,-0.00008032,0.000
 06055,0.01257288,-0.00837616,0.00034087,0.23288026,0.00010143,-0.00105
 849,0.00042459,-0.01057209,0.01174201,-0.00263674,0.12246265,-0.139968
 56,0.01615271,-0.00207568,-0.00092076,0.00216017,0.00061374,-0.0001625
 1,0.00071925,-0.00038410,0.00012406,-0.00002802,0.00011016,-0.00019407
 ,0.00006329,0.00001626,0.00004987,-0.00009190,0.00011057,-0.00006894,0
 .00000286,0.00011413,0.00006306,-0.00003310,0.00014252,-0.00003311,0.0
 0005906,-0.00003433,0.00015107,-0.00006483,-0.00002236,-0.00012454,0.0
 0007173,-0.00011462,0.00004347,-0.00000875,-0.00014744,-0.00007796,0.0
 0006323,0.01732037,-0.03171419,-0.01051667,-0.13674128,0.16560628,-0.0
 0197949,0.00025276,-0.00071160,0.01421082,-0.00583379,0.00195635,-0.02
 410587,0.01896899,-0.04810768,0.00076041,0.00110081,-0.00112822,-0.000
 19758,0.00025113,-0.00064175,0.00023420,-0.00003829,0.00004379,-0.0000
 4207,0.00005858,0.00001457,-0.00001191,-0.00000516,0.00002101,-0.00004
 045,0.00002402,0.00000344,-0.00003835,-0.00001081,-0.00000178,-0.00010
 025,-0.00000037,-0.00001989,0.00001202,-0.00007363,0.00001698,0.000013
 81,0.00004029,-0.00002061,0.00002341,-0.00001096,0.00000450,0.00004563
 ,0.00002545,-0.00001496,0.01556491,-0.02345453,-0.00176585,0.01958941,
 -0.00811716,0.05093226,-0.00075015,0.00206729,-0.00239162,0.00385660,-
 0.01169240,0.02878798,-0.05092106,0.00839956,-0.02765780,-0.00425031,-
 0.00087461,0.00127084,-0.00081429,0.00130893,-0.00035769,-0.00004885,0
 .00012039,-0.00012744,-0.00017767,-0.00050798,0.00036112,0.00000574,0.
 00011109,-0.00005437,0.00007686,0.00004660,-0.00007115,0.00009698,0.00
 005967,-0.00004819,0.00010513,-0.00009163,0.00004431,0.00001770,0.0001
 1926,-0.00006836,-0.00000337,-0.00010389,0.00006859,-0.00017871,0.0000
 2673,0.00000627,-0.00013088,-0.00007198,0.00006053,0.00143313,-0.00314
 452,-0.00861058,-0.00069584,0.00910008,-0.02393864,0.05237901,-0.00104
 226,0.00021540,-0.00092598,0.00495286,-0.00243081,0.01269479,0.0092561
 8,-0.07473701,0.08869216,-0.00191196,-0.00080087,0.00099789,-0.0000826
 6,0.00063430,-0.00022953,-0.00005905,0.00005652,-0.00007411,-0.0000566
 9,-0.00024343,0.00022284,0.00001466,0.00007381,-0.00004373,0.00005667,
 0.00000303,-0.00002926,0.00007297,0.00004593,-0.00003551,0.00004004,-0
 .00004190,0.00003427,-0.00000750,0.00007296,-0.00004608,-0.00000736,-0
 .00008329,0.00005238,-0.00011332,0.00002391,-0.00000301,-0.00009692,-0
 .00005102,0.00004539,-0.00702978,-0.00153718,-0.04177674,0.00088670,-0
 .00345670,0.01682266,-0.00487258,0.08225635,-0.00002591,-0.00196296,0.
 00158835,0.00054083,0.00636287,-0.01059439,-0.02977816,0.07928694,-0.2
 8526779,0.00058637,0.00079460,0.00029825,0.00021697,-0.00020301,-0.000
 03703,0.00003892,-0.00002505,0.00002303,0.00003658,0.00009884,-0.00005
 830,0.00000885,-0.00000466,-0.00000184,-0.00000580,-0.00002413,0.00001
 760,-0.00000955,0.00000127,-0.00000005,-0.00004800,0.00002203,0.000005
 61,-0.00000865,-0.00001230,0.00000678,-0.00000070,0.00000246,-0.000003
 46,0.00001408,0.00000224,-0.00000405,0.00000996,0.00000650,-0.00000394
 ,-0.00475196,-0.00972749,-0.02073448,0.00044999,0.00178028,-0.00058056
 ,0.03272619,-0.07639842,0.31534627\\-0.00001150,-0.00000839,-0.0000067
 0,0.00004149,-0.00000066,-0.00000916,0.00000846,-0.00002231,-0.0000203
 9,-0.00003162,-0.00000470,0.00001968,0.00001307,0.00001735,0.00000974,
 0.00000137,-0.00000420,-0.00000402,-0.00003137,-0.00001172,0.00000143,
 -0.00001851,0.00001772,0.00000043,0.00001391,0.00000365,-0.00002530,0.
 00002181,-0.00001552,-0.00000087,-0.00000281,0.00001061,0.00002055,-0.
 00000301,-0.00000288,-0.00001078,0.00000158,-0.00000730,0.00001418,-0.
 00000774,-0.00000781,-0.00000649,-0.00000635,-0.00000392,0.00000043,-0
 .00000176,0.00002202,0.00000446,0.00001245,0.00000614,0.00001049,0.000
 00052,0.00001191,0.00000234\\\@


 At the touch of love, everyone becomes a poet.
                                -- Plato
 Job cpu time:       0 days  4 hours 29 minutes 41.3 seconds.
 Elapsed time:       0 days  0 hours 11 minutes 15.2 seconds.
 File lengths (MBytes):  RWF=    499 Int=      0 D2E=      0 Chk=     28 Scr=      1
 Normal termination of Gaussian 16 at Thu Aug 29 16:13:09 2024.
