 Entering Gaussian System, Link 0=g16
 Input=input.com
 Output=input.log
 Initial command:
 /share/apps/g16.b01_avx2/g16/l1.exe "/scratch/Gau-370870.inp" -scrdir="/scratch/"
 Entering Link 1 = /share/apps/g16.b01_avx2/g16/l1.exe PID=    370872.
  
 Copyright (c) 1988-2017, Gaussian, Inc.  All Rights Reserved.
  
 This is part of the Gaussian(R) 16 program.  It is based on
 the Gaussian(R) 09 system (copyright 2009, Gaussian, Inc.),
 the Gaussian(R) 03 system (copyright 2003, Gaussian, Inc.),
 the Gaussian(R) 98 system (copyright 1998, Gaussian, Inc.),
 the Gaussian(R) 94 system (copyright 1995, Gaussian, Inc.),
 the Gaussian 92(TM) system (copyright 1992, Gaussian, Inc.),
 the Gaussian 90(TM) system (copyright 1990, Gaussian, Inc.),
 the Gaussian 88(TM) system (copyright 1988, Gaussian, Inc.),
 the Gaussian 86(TM) system (copyright 1986, Carnegie Mellon
 University), and the Gaussian 82(TM) system (copyright 1983,
 Carnegie Mellon University). Gaussian is a federally registered
 trademark of Gaussian, Inc.
  
 This software contains proprietary and confidential information,
 including trade secrets, belonging to Gaussian, Inc.
  
 This software is provided under written license and may be
 used, copied, transmitted, or stored only in accord with that
 written license.
  
 The following legend is applicable only to US Government
 contracts under FAR:
  
                    RESTRICTED RIGHTS LEGEND
  
 Use, reproduction and disclosure by the US Government is
 subject to restrictions as set forth in subparagraphs (a)
 and (c) of the Commercial Computer Software - Restricted
 Rights clause in FAR 52.227-19.
  
 Gaussian, Inc.
 340 Quinnipiac St., Bldg. 40, Wallingford CT 06492
  
  
 ---------------------------------------------------------------
 Warning -- This program may not be used in any manner that
 competes with the business of Gaussian, Inc. or will provide
 assistance to any competitor of Gaussian, Inc.  The licensee
 of this program is prohibited from giving any competitor of
 Gaussian, Inc. access to this program.  By using this program,
 the user acknowledges that Gaussian, Inc. is engaged in the
 business of creating and licensing software in the field of
 computational chemistry and represents and warrants to the
 licensee that it is not a competitor of Gaussian, Inc. and that
 it will not use this program in any manner prohibited above.
 ---------------------------------------------------------------
  

 Cite this work as:
 Gaussian 16, Revision B.01,
 M. J. Frisch, G. W. Trucks, H. B. Schlegel, G. E. Scuseria, 
 M. A. Robb, J. R. Cheeseman, G. Scalmani, V. Barone, 
 G. A. Petersson, H. Nakatsuji, X. Li, M. Caricato, A. V. Marenich, 
 J. Bloino, B. G. Janesko, R. Gomperts, B. Mennucci, H. P. Hratchian, 
 J. V. Ortiz, A. F. Izmaylov, J. L. Sonnenberg, D. Williams-Young, 
 F. Ding, F. Lipparini, F. Egidi, J. Goings, B. Peng, A. Petrone, 
 T. Henderson, D. Ranasinghe, V. G. Zakrzewski, J. Gao, N. Rega, 
 G. Zheng, W. Liang, M. Hada, M. Ehara, K. Toyota, R. Fukuda, 
 J. Hasegawa, M. Ishida, T. Nakajima, Y. Honda, O. Kitao, H. Nakai, 
 T. Vreven, K. Throssell, J. A. Montgomery, Jr., J. E. Peralta, 
 F. Ogliaro, M. J. Bearpark, J. J. Heyd, E. N. Brothers, K. N. Kudin, 
 V. N. Staroverov, T. A. Keith, R. Kobayashi, J. Normand, 
 K. Raghavachari, A. P. Rendell, J. C. Burant, S. S. Iyengar, 
 J. Tomasi, M. Cossi, J. M. Millam, M. Klene, C. Adamo, R. Cammi, 
 J. W. Ochterski, R. L. Martin, K. Morokuma, O. Farkas, 
 J. B. Foresman, and D. J. Fox, Gaussian, Inc., Wallingford CT, 2016.
 
 ******************************************
 Gaussian 16:  ES64L-G16RevB.01 20-Dec-2017
                28-Aug-2024 
 ******************************************
 %nproc=24
 Will use up to   24 processors via shared memory.
 %mem=64GB
 ----------------------------------------------------------------------
 #P PBE1PBE/def2TZVP opt freq EmpiricalDispersion=GD3 Int=(grid=99590) 
 scrf=(iefpcm, solvent=water)
 ----------------------------------------------------------------------
 1/18=20,19=15,26=6,38=1/1,3;
 2/9=110,12=2,17=6,18=5,40=1/2;
 3/5=44,7=101,11=2,25=1,30=1,70=2201,71=1,72=1,74=-13,75=99590,124=31/1,2,3;
 4//1;
 5/5=2,38=5,53=1/2;
 6/7=2,8=2,9=2,10=2,28=1/1;
 7//1,2,3,16;
 1/18=20,19=15,26=6/3(2);
 2/9=110/2;
 99//99;
 2/9=110/2;
 3/5=44,7=101,11=2,25=1,30=1,70=2205,71=1,72=1,74=-13,75=99590,124=31/1,2,3;
 4/5=5,16=3,69=1/1;
 5/5=2,38=5,53=1/2;
 7//1,2,3,16;
 1/18=20,19=15,26=6/3(-5);
 2/9=110/2;
 6/7=2,8=2,9=2,10=2,19=2,28=1/1;
 99/9=1/99;
 Leave Link    1 at Wed Aug 28 23:32:57 2024, MaxMem=  8589934592 cpu:               0.9 elap:               0.0
 (Enter /share/apps/g16.b01_avx2/g16/l101.exe)
 -------------------
 pfp-ome_ester inter
 -------------------
 Symbolic Z-matrix:
 Charge =  0 Multiplicity = 1
 H                    -2.38383   1.6242    0.15024 
 O                    -1.82159  -0.54909   1.31775 
 C                    -2.28509  -0.50216   0.17075 
 N                    -3.08941   0.92129  -0.05831 
 H                    -3.34124   1.03395  -1.03733 
 C                    -4.24972   1.08753   0.82714 
 H                    -5.04366   0.41513   0.51086 
 H                    -3.93389   0.84095   1.83915 
 H                    -4.60674   2.11529   0.78855 
 C                    -3.18374  -1.59725  -0.36513 
 H                    -4.02774  -1.74637   0.30875 
 H                    -3.5489   -1.38801  -1.37139 
 O                    -1.25518  -0.27146  -0.96263 
 C                     0.01051  -0.12482  -0.55805 
 C                     0.58541   1.13588  -0.42547 
 C                     0.82232  -1.2224   -0.28247 
 C                     1.90823   1.3055   -0.05907 
 C                     2.14596  -1.07126   0.08962 
 C                     2.69328   0.19587   0.201 
 F                    -0.16252   2.21749  -0.64948 
 F                     0.32385  -2.44952  -0.38922 
 F                     2.42537   2.52424   0.05163 
 F                     2.89816  -2.13758   0.34052 
 F                     3.96377   0.34454   0.55525 
 O                    -2.41036  -2.79965  -0.39745 
 C                    -3.08985  -3.7833   -1.18206 
 H                    -3.15737  -3.44679  -2.19552 
 H                    -2.54667  -4.70453  -1.14758 
 H                    -4.07394  -3.93461  -0.79018 
 
 ITRead=  0  0  0  0  0  0  0  0  0  0  0  0  0  0  0  0  0  0  0  0
 ITRead=  0  0  0  0  0  0  0  0  0
 MicOpt= -1 -1 -1 -1 -1 -1 -1 -1 -1 -1 -1 -1 -1 -1 -1 -1 -1 -1 -1 -1
 MicOpt= -1 -1 -1 -1 -1 -1 -1 -1 -1
 NAtoms=     29 NQM=       29 NQMF=       0 NMMI=      0 NMMIF=      0
                NMic=       0 NMicF=      0.
                    Isotopes and Nuclear Properties:
 (Nuclear quadrupole moments (NQMom) in fm**2, nuclear magnetic moments (NMagM)
  in nuclear magnetons)

  Atom         1           2           3           4           5           6           7           8           9          10
 IAtWgt=           1          16          12          14           1          12           1           1           1          12
 AtmWgt=   1.0078250  15.9949146  12.0000000  14.0030740   1.0078250  12.0000000   1.0078250   1.0078250   1.0078250  12.0000000
 NucSpn=           1           0           0           2           1           0           1           1           1           0
 AtZEff=  -0.0000000  -0.0000000  -0.0000000  -0.0000000  -0.0000000  -0.0000000  -0.0000000  -0.0000000  -0.0000000  -0.0000000
 NQMom=    0.0000000   0.0000000   0.0000000   2.0440000   0.0000000   0.0000000   0.0000000   0.0000000   0.0000000   0.0000000
 NMagM=    2.7928460   0.0000000   0.0000000   0.4037610   2.7928460   0.0000000   2.7928460   2.7928460   2.7928460   0.0000000
 AtZNuc=   1.0000000   8.0000000   6.0000000   7.0000000   1.0000000   6.0000000   1.0000000   1.0000000   1.0000000   6.0000000

  Atom        11          12          13          14          15          16          17          18          19          20
 IAtWgt=           1           1          16          12          12          12          12          12          12          19
 AtmWgt=   1.0078250   1.0078250  15.9949146  12.0000000  12.0000000  12.0000000  12.0000000  12.0000000  12.0000000  18.9984032
 NucSpn=           1           1           0           0           0           0           0           0           0           1
 AtZEff=  -0.0000000  -0.0000000  -0.0000000  -0.0000000  -0.0000000  -0.0000000  -0.0000000  -0.0000000  -0.0000000  -0.0000000
 NQMom=    0.0000000   0.0000000   0.0000000   0.0000000   0.0000000   0.0000000   0.0000000   0.0000000   0.0000000   0.0000000
 NMagM=    2.7928460   2.7928460   0.0000000   0.0000000   0.0000000   0.0000000   0.0000000   0.0000000   0.0000000   2.6288670
 AtZNuc=   1.0000000   1.0000000   8.0000000   6.0000000   6.0000000   6.0000000   6.0000000   6.0000000   6.0000000   9.0000000

  Atom        21          22          23          24          25          26          27          28          29
 IAtWgt=          19          19          19          19          16          12           1           1           1
 AtmWgt=  18.9984032  18.9984032  18.9984032  18.9984032  15.9949146  12.0000000   1.0078250   1.0078250   1.0078250
 NucSpn=           1           1           1           1           0           0           1           1           1
 AtZEff=  -0.0000000  -0.0000000  -0.0000000  -0.0000000  -0.0000000  -0.0000000  -0.0000000  -0.0000000  -0.0000000
 NQMom=    0.0000000   0.0000000   0.0000000   0.0000000   0.0000000   0.0000000   0.0000000   0.0000000   0.0000000
 NMagM=    2.6288670   2.6288670   2.6288670   2.6288670   0.0000000   0.0000000   2.7928460   2.7928460   2.7928460
 AtZNuc=   9.0000000   9.0000000   9.0000000   9.0000000   8.0000000   6.0000000   1.0000000   1.0000000   1.0000000
 Leave Link  101 at Wed Aug 28 23:32:57 2024, MaxMem=  8589934592 cpu:               6.6 elap:               0.3
 (Enter /share/apps/g16.b01_avx2/g16/l103.exe)

 GradGradGradGradGradGradGradGradGradGradGradGradGradGradGradGradGradGrad
 Berny optimization.
 Initialization pass.
                           ----------------------------
                           !    Initial Parameters    !
                           ! (Angstroms and Degrees)  !
 --------------------------                            --------------------------
 ! Name  Definition              Value          Derivative Info.                !
 --------------------------------------------------------------------------------
 ! R1    R(1,4)                  1.0176         estimate D2E/DX2                !
 ! R2    R(2,3)                  1.238          estimate D2E/DX2                !
 ! R3    R(3,4)                  1.6509         estimate D2E/DX2                !
 ! R4    R(3,10)                 1.5146         estimate D2E/DX2                !
 ! R5    R(3,13)                 1.5487         estimate D2E/DX2                !
 ! R6    R(4,5)                  1.0171         estimate D2E/DX2                !
 ! R7    R(4,6)                  1.469          estimate D2E/DX2                !
 ! R8    R(6,7)                  1.0874         estimate D2E/DX2                !
 ! R9    R(6,8)                  1.0884         estimate D2E/DX2                !
 ! R10   R(6,9)                  1.0887         estimate D2E/DX2                !
 ! R11   R(10,11)                1.0903         estimate D2E/DX2                !
 ! R12   R(10,12)                1.0907         estimate D2E/DX2                !
 ! R13   R(10,25)                1.43           estimate D2E/DX2                !
 ! R14   R(13,14)                1.3368         estimate D2E/DX2                !
 ! R15   R(14,15)                1.3919         estimate D2E/DX2                !
 ! R16   R(14,16)                1.3927         estimate D2E/DX2                !
 ! R17   R(15,17)                1.3831         estimate D2E/DX2                !
 ! R18   R(15,20)                1.334          estimate D2E/DX2                !
 ! R19   R(16,18)                1.3832         estimate D2E/DX2                !
 ! R20   R(16,21)                1.3288         estimate D2E/DX2                !
 ! R21   R(17,19)                1.3839         estimate D2E/DX2                !
 ! R22   R(17,22)                1.3285         estimate D2E/DX2                !
 ! R23   R(18,19)                1.3848         estimate D2E/DX2                !
 ! R24   R(18,23)                1.3288         estimate D2E/DX2                !
 ! R25   R(19,24)                1.3273         estimate D2E/DX2                !
 ! R26   R(25,26)                1.43           estimate D2E/DX2                !
 ! R27   R(26,27)                1.07           estimate D2E/DX2                !
 ! R28   R(26,28)                1.07           estimate D2E/DX2                !
 ! R29   R(26,29)                1.07           estimate D2E/DX2                !
 ! A1    A(2,3,4)              110.0987         estimate D2E/DX2                !
 ! A2    A(2,3,10)             121.5026         estimate D2E/DX2                !
 ! A3    A(2,3,13)             115.7658         estimate D2E/DX2                !
 ! A4    A(4,3,10)             106.5739         estimate D2E/DX2                !
 ! A5    A(4,3,13)              95.3945         estimate D2E/DX2                !
 ! A6    A(10,3,13)            104.0841         estimate D2E/DX2                !
 ! A7    A(1,4,3)              103.2582         estimate D2E/DX2                !
 ! A8    A(1,4,5)              107.004          estimate D2E/DX2                !
 ! A9    A(1,4,6)              110.2424         estimate D2E/DX2                !
 ! A10   A(3,4,5)              110.4667         estimate D2E/DX2                !
 ! A11   A(3,4,6)              113.4997         estimate D2E/DX2                !
 ! A12   A(5,4,6)              111.8433         estimate D2E/DX2                !
 ! A13   A(4,6,7)              109.3539         estimate D2E/DX2                !
 ! A14   A(4,6,8)              107.794          estimate D2E/DX2                !
 ! A15   A(4,6,9)              110.1501         estimate D2E/DX2                !
 ! A16   A(7,6,8)              110.0113         estimate D2E/DX2                !
 ! A17   A(7,6,9)              109.5119         estimate D2E/DX2                !
 ! A18   A(8,6,9)              109.997          estimate D2E/DX2                !
 ! A19   A(3,10,11)            109.847          estimate D2E/DX2                !
 ! A20   A(3,10,12)            112.7272         estimate D2E/DX2                !
 ! A21   A(3,10,25)            107.1613         estimate D2E/DX2                !
 ! A22   A(11,10,12)           109.7118         estimate D2E/DX2                !
 ! A23   A(11,10,25)           108.5199         estimate D2E/DX2                !
 ! A24   A(12,10,25)           108.7547         estimate D2E/DX2                !
 ! A25   A(3,13,14)            115.1181         estimate D2E/DX2                !
 ! A26   A(13,14,15)           121.2798         estimate D2E/DX2                !
 ! A27   A(13,14,16)           121.6893         estimate D2E/DX2                !
 ! A28   A(15,14,16)           117.0125         estimate D2E/DX2                !
 ! A29   A(14,15,17)           122.0963         estimate D2E/DX2                !
 ! A30   A(14,15,20)           119.1312         estimate D2E/DX2                !
 ! A31   A(17,15,20)           118.771          estimate D2E/DX2                !
 ! A32   A(14,16,18)           121.662          estimate D2E/DX2                !
 ! A33   A(14,16,21)           119.5526         estimate D2E/DX2                !
 ! A34   A(18,16,21)           118.7824         estimate D2E/DX2                !
 ! A35   A(15,17,19)           119.6047         estimate D2E/DX2                !
 ! A36   A(15,17,22)           120.4557         estimate D2E/DX2                !
 ! A37   A(19,17,22)           119.9384         estimate D2E/DX2                !
 ! A38   A(16,18,19)           119.9891         estimate D2E/DX2                !
 ! A39   A(16,18,23)           120.317          estimate D2E/DX2                !
 ! A40   A(19,18,23)           119.6939         estimate D2E/DX2                !
 ! A41   A(17,19,18)           119.6281         estimate D2E/DX2                !
 ! A42   A(17,19,24)           120.2209         estimate D2E/DX2                !
 ! A43   A(18,19,24)           120.1511         estimate D2E/DX2                !
 ! A44   A(10,25,26)           109.5            estimate D2E/DX2                !
 ! A45   A(25,26,27)           109.4712         estimate D2E/DX2                !
 ! A46   A(25,26,28)           109.4712         estimate D2E/DX2                !
 ! A47   A(25,26,29)           109.4712         estimate D2E/DX2                !
 ! A48   A(27,26,28)           109.4713         estimate D2E/DX2                !
 ! A49   A(27,26,29)           109.4712         estimate D2E/DX2                !
 ! A50   A(28,26,29)           109.4712         estimate D2E/DX2                !
 ! D1    D(2,3,4,1)             56.6794         estimate D2E/DX2                !
 ! D2    D(2,3,4,5)            170.7981         estimate D2E/DX2                !
 ! D3    D(2,3,4,6)            -62.6653         estimate D2E/DX2                !
 ! D4    D(10,3,4,1)          -169.7342         estimate D2E/DX2                !
 ! D5    D(10,3,4,5)           -55.6155         estimate D2E/DX2                !
 ! D6    D(10,3,4,6)            70.9211         estimate D2E/DX2                !
 ! D7    D(13,3,4,1)           -63.2872         estimate D2E/DX2                !
 ! D8    D(13,3,4,5)            50.8315         estimate D2E/DX2                !
 ! D9    D(13,3,4,6)           177.3681         estimate D2E/DX2                !
 ! D10   D(2,3,10,11)           54.5263         estimate D2E/DX2                !
 ! D11   D(2,3,10,12)          177.2075         estimate D2E/DX2                !
 ! D12   D(2,3,10,25)          -63.177          estimate D2E/DX2                !
 ! D13   D(4,3,10,11)          -72.5523         estimate D2E/DX2                !
 ! D14   D(4,3,10,12)           50.1289         estimate D2E/DX2                !
 ! D15   D(4,3,10,25)          169.7445         estimate D2E/DX2                !
 ! D16   D(13,3,10,11)        -172.6774         estimate D2E/DX2                !
 ! D17   D(13,3,10,12)         -49.9961         estimate D2E/DX2                !
 ! D18   D(13,3,10,25)          69.6194         estimate D2E/DX2                !
 ! D19   D(2,3,13,14)           -1.2473         estimate D2E/DX2                !
 ! D20   D(4,3,13,14)          114.1475         estimate D2E/DX2                !
 ! D21   D(10,3,13,14)        -137.2444         estimate D2E/DX2                !
 ! D22   D(1,4,6,7)            172.859          estimate D2E/DX2                !
 ! D23   D(1,4,6,8)            -67.5596         estimate D2E/DX2                !
 ! D24   D(1,4,6,9)             52.4628         estimate D2E/DX2                !
 ! D25   D(3,4,6,7)            -71.8709         estimate D2E/DX2                !
 ! D26   D(3,4,6,8)             47.7105         estimate D2E/DX2                !
 ! D27   D(3,4,6,9)            167.7328         estimate D2E/DX2                !
 ! D28   D(5,4,6,7)             53.937          estimate D2E/DX2                !
 ! D29   D(5,4,6,8)            173.5184         estimate D2E/DX2                !
 ! D30   D(5,4,6,9)            -66.4592         estimate D2E/DX2                !
 ! D31   D(3,10,25,26)        -166.2659         estimate D2E/DX2                !
 ! D32   D(11,10,25,26)         75.1674         estimate D2E/DX2                !
 ! D33   D(12,10,25,26)        -44.1336         estimate D2E/DX2                !
 ! D34   D(3,13,14,15)         -98.8821         estimate D2E/DX2                !
 ! D35   D(3,13,14,16)          82.7259         estimate D2E/DX2                !
 ! D36   D(13,14,15,17)       -177.409          estimate D2E/DX2                !
 ! D37   D(13,14,15,20)          3.0457         estimate D2E/DX2                !
 ! D38   D(16,14,15,17)          1.0552         estimate D2E/DX2                !
 ! D39   D(16,14,15,20)       -178.4901         estimate D2E/DX2                !
 ! D40   D(13,14,16,18)        177.6349         estimate D2E/DX2                !
 ! D41   D(13,14,16,21)         -1.7371         estimate D2E/DX2                !
 ! D42   D(15,14,16,18)         -0.8226         estimate D2E/DX2                !
 ! D43   D(15,14,16,21)        179.8054         estimate D2E/DX2                !
 ! D44   D(14,15,17,19)         -0.7078         estimate D2E/DX2                !
 ! D45   D(14,15,17,22)        179.6795         estimate D2E/DX2                !
 ! D46   D(20,15,17,19)        178.8391         estimate D2E/DX2                !
 ! D47   D(20,15,17,22)         -0.7736         estimate D2E/DX2                !
 ! D48   D(14,16,18,19)          0.2505         estimate D2E/DX2                !
 ! D49   D(14,16,18,23)       -179.6925         estimate D2E/DX2                !
 ! D50   D(21,16,18,19)        179.6272         estimate D2E/DX2                !
 ! D51   D(21,16,18,23)         -0.3158         estimate D2E/DX2                !
 ! D52   D(15,17,19,18)          0.0882         estimate D2E/DX2                !
 ! D53   D(15,17,19,24)       -179.9114         estimate D2E/DX2                !
 ! D54   D(22,17,19,18)        179.7029         estimate D2E/DX2                !
 ! D55   D(22,17,19,24)         -0.2967         estimate D2E/DX2                !
 ! D56   D(16,18,19,17)          0.1335         estimate D2E/DX2                !
 ! D57   D(16,18,19,24)       -179.8669         estimate D2E/DX2                !
 ! D58   D(23,18,19,17)       -179.9232         estimate D2E/DX2                !
 ! D59   D(23,18,19,24)          0.0764         estimate D2E/DX2                !
 ! D60   D(10,25,26,27)         64.0832         estimate D2E/DX2                !
 ! D61   D(10,25,26,28)       -175.9168         estimate D2E/DX2                !
 ! D62   D(10,25,26,29)        -55.9168         estimate D2E/DX2                !
 --------------------------------------------------------------------------------
 Trust Radius=3.00D-01 FncErr=5.00D-06 GrdErr=5.00D-06 EigMax=2.50D+02 EigMin=1.00D-04
 Number of steps in this run=    151 maximum allowed number of steps=    174.
 GradGradGradGradGradGradGradGradGradGradGradGradGradGradGradGradGradGrad

 Leave Link  103 at Wed Aug 28 23:32:57 2024, MaxMem=  8589934592 cpu:               0.2 elap:               0.0
 (Enter /share/apps/g16.b01_avx2/g16/l202.exe)
                          Input orientation:                          
 ---------------------------------------------------------------------
 Center     Atomic      Atomic             Coordinates (Angstroms)
 Number     Number       Type             X           Y           Z
 ---------------------------------------------------------------------
      1          1           0       -2.383829    1.624202    0.150237
      2          8           0       -1.821586   -0.549093    1.317749
      3          6           0       -2.285094   -0.502158    0.170750
      4          7           0       -3.089411    0.921294   -0.058314
      5          1           0       -3.341241    1.033951   -1.037329
      6          6           0       -4.249723    1.087525    0.827140
      7          1           0       -5.043664    0.415126    0.510861
      8          1           0       -3.933886    0.840950    1.839147
      9          1           0       -4.606738    2.115293    0.788554
     10          6           0       -3.183739   -1.597254   -0.365134
     11          1           0       -4.027744   -1.746369    0.308745
     12          1           0       -3.548898   -1.388006   -1.371387
     13          8           0       -1.255180   -0.271461   -0.962627
     14          6           0        0.010505   -0.124822   -0.558054
     15          6           0        0.585408    1.135881   -0.425472
     16          6           0        0.822320   -1.222397   -0.282473
     17          6           0        1.908228    1.305495   -0.059071
     18          6           0        2.145960   -1.071257    0.089620
     19          6           0        2.693277    0.195871    0.200995
     20          9           0       -0.162520    2.217487   -0.649477
     21          9           0        0.323848   -2.449521   -0.389216
     22          9           0        2.425365    2.524237    0.051633
     23          9           0        2.898159   -2.137581    0.340520
     24          9           0        3.963765    0.344539    0.555246
     25          8           0       -2.410363   -2.799645   -0.397454
     26          6           0       -3.089850   -3.783303   -1.182065
     27          1           0       -3.157372   -3.446786   -2.195523
     28          1           0       -2.546667   -4.704533   -1.147581
     29          1           0       -4.073937   -3.934615   -0.790176
 ---------------------------------------------------------------------
                    Distance matrix (angstroms):
                    1          2          3          4          5
     1  H    0.000000
     2  O    2.530299   0.000000
     3  C    2.128750   1.238002   0.000000
     4  N    1.017555   2.379699   1.650943   0.000000
     5  H    1.635649   3.218971   2.221381   1.017143   0.000000
     6  C    2.056157   2.969018   2.611074   1.469008   2.074718
     7  H    2.943915   3.458695   2.926909   2.097444   2.382872
     8  H    2.422515   2.581838   2.702962   2.078449   2.943228
     9  H    2.364306   3.890510   3.552853   2.108341   2.470755
    10  C    3.359054   2.405452   1.514586   2.538921   2.720274
    11  H    3.753442   2.705308   2.145678   2.851601   3.164393
    12  H    3.570171   3.304366   2.181768   2.695952   2.453689
    13  O    2.471002   2.366011   1.548705   2.367456   2.461977
    14  C    3.048540   2.656163   2.437891   3.309619   3.578639
    15  C    3.063701   3.416369   3.358338   3.699344   3.975340
    16  C    4.309264   3.162956   3.221828   4.466240   4.795431
    17  C    4.308960   4.387100   4.572130   5.012385   5.346742
    18  C    5.271448   4.185974   4.468187   5.603682   5.984253
    19  C    5.274439   4.710212   5.027160   5.833778   6.217011
    20  F    2.434285   3.778418   3.546063   3.255193   3.414008
    21  F    4.921153   3.335902   3.303387   4.808558   5.097794
    22  F    4.893683   5.393051   5.600150   5.744064   6.054794
    23  F    6.487420   5.074866   5.437788   6.735487   7.133526
    24  F    6.487952   5.903412   6.317671   7.103266   7.508309
    25  O    4.457701   2.890254   2.370020   3.797566   3.996553
    26  C    5.613787   4.279916   3.639183   4.836947   4.825980
    27  H    5.640557   4.745949   3.876977   4.863374   4.631655
    28  H    6.462486   4.885824   4.412071   5.755953   5.794282
    29  H    5.885685   4.580196   3.988120   5.008469   5.028377
                    6          7          8          9         10
     6  C    0.000000
     7  H    1.087426   0.000000
     8  H    1.088444   1.782492   0.000000
     9  H    1.088694   1.777241   1.783375   0.000000
    10  C    3.125040   2.876867   3.371411   4.139919   0.000000
    11  H    2.889457   2.396874   3.007517   3.934194   1.090272
    12  H    3.384218   3.004741   3.927339   4.249409   1.090720
    13  O    3.743981   4.122521   4.032724   4.471708   2.415381
    14  C    4.640915   5.194107   4.715666   5.305695   3.522566
    15  C    4.994984   5.751753   5.063546   5.421392   4.656193
    16  C    5.682658   6.141712   5.601800   6.462348   4.024408
    17  C    6.225210   7.031812   6.160303   6.619594   5.869221
    18  C    6.790364   7.353739   6.609229   7.499436   5.374864
    19  C    7.027969   7.746247   6.857037   7.570973   6.170504
    20  F    4.490261   5.331084   4.723484   4.672200   4.874512
    21  F    5.908280   6.150327   5.824182   6.821682   3.609724
    22  F    6.871852   7.774679   6.816798   7.082426   6.972979
    23  F    7.856865   8.343733   7.602261   8.637775   6.146494
    24  F    8.251505   9.007815   8.016715   8.754629   7.463543
    25  O    4.471350   4.253712   4.536236   5.512467   1.430000
    26  C    5.395107   4.930537   5.587829   6.401385   2.335595
    27  H    5.557850   5.079072   5.938537   6.476272   2.602266
    28  H    6.351996   5.932649   6.449597   7.382583   3.266996
    29  H    5.279063   4.642555   5.453345   6.275161   2.537000
                   11         12         13         14         15
    11  H    0.000000
    12  H    1.783413   0.000000
    13  O    3.388045   2.583583   0.000000
    14  C    4.437140   3.863482   1.336840   0.000000
    15  C    5.488862   4.935306   2.378426   1.391928   0.000000
    16  C    4.913981   4.507849   2.383882   1.392717   2.374458
    17  C    6.684678   6.225540   3.648336   2.428198   1.383066
    18  C    6.214371   5.887808   3.648925   2.423920   2.751745
    19  C    6.996859   6.629163   4.142792   2.806468   2.391483
    20  F    5.618745   4.998829   2.736207   2.350470   1.333959
    21  F    4.462950   4.133961   2.750650   2.351790   3.595113
    22  F    7.742532   7.281652   4.731919   3.636039   2.353849
    23  F    6.937016   6.712454   4.736119   3.632792   4.080578
    24  F    8.264192   7.946932   5.469989   4.133764   3.605735
    25  O    2.055245   2.058527   2.836474   3.611243   4.946089
    26  C    2.692817   2.446225   3.968275   4.835915   6.186948
    27  H    3.149654   2.251903   3.901418   4.873623   6.175947
    28  H    3.614583   3.471873   4.621068   5.278297   6.666466
    29  H    2.449119   2.664337   4.625346   5.590266   6.895828
                   16         17         18         19         20
    16  C    0.000000
    17  C    2.760316   0.000000
    18  C    1.383228   2.393235   0.000000
    19  C    2.397020   1.383908   1.384765   0.000000
    20  F    3.596860   2.338441   4.085484   3.600807   0.000000
    21  F    1.328797   4.088936   2.334307   3.600089   4.699495
    22  F    4.088844   1.328540   3.606534   2.348483   2.698666
    23  F    2.352613   3.604776   1.328834   2.346581   5.414284
    24  F    3.609119   2.350756   2.350681   1.327304   4.688872
    25  O    3.598774   5.967990   4.897412   5.947974   5.503447
    26  C    4.761573   7.220649   6.032088   7.154805   6.697940
    27  H    4.944251   7.266974   6.244226   7.296736   6.591160
    28  H    4.921763   7.559853   6.062352   7.299975   7.338026
    29  H    5.620251   7.986211   6.903621   7.989901   7.291594
                   21         22         23         24         25
    21  F    0.000000
    22  F    5.417471   0.000000
    23  F    2.693863   4.694629   0.000000
    24  F    4.684845   2.715029   2.709713   0.000000
    25  O    2.756549   7.206224   5.400309   7.170986   0.000000
    26  C    3.749789   8.469042   6.393975   8.355287   1.430000
    27  H    4.046749   8.477605   6.694400   8.523584   2.051796
    28  H    3.728277   8.855187   6.200792   8.412994   2.051796
    29  H    4.659055   9.201432   7.288205   9.204672   2.051796
                   26         27         28         29
    26  C    0.000000
    27  H    1.070000   0.000000
    28  H    1.070000   1.747303   0.000000
    29  H    1.070000   1.747303   1.747303   0.000000
 Stoichiometry    C10H10F5NO3
 Framework group  C1[X(C10H10F5NO3)]
 Deg. of freedom    81
 Full point group                 C1      NOp   1
 Largest Abelian subgroup         C1      NOp   1
 Largest concise Abelian subgroup C1      NOp   1
                         Standard orientation:                         
 ---------------------------------------------------------------------
 Center     Atomic      Atomic             Coordinates (Angstroms)
 Number     Number       Type             X           Y           Z
 ---------------------------------------------------------------------
      1          1           0        1.425158   -2.514684    0.092302
      2          8           0        1.423198   -0.388389    1.463899
      3          6           0        1.917442   -0.457432    0.330936
      4          7           0        2.307907   -2.021931   -0.023313
      5          1           0        2.571724   -2.109859   -1.001704
      6          6           0        3.326918   -2.588133    0.870565
      7          1           0        4.291876   -2.139380    0.647018
      8          1           0        3.036933   -2.357346    1.893969
      9          1           0        3.387284   -3.666656    0.734924
     10          6           0        3.111741    0.386034   -0.064266
     11          1           0        3.926028    0.229406    0.643616
     12          1           0        3.459059    0.176534   -1.076763
     13          8           0        0.927266   -0.284149   -0.847203
     14          6           0       -0.349694   -0.106364   -0.493782
     15          6           0       -1.257205   -1.161674   -0.508167
     16          6           0       -0.840023    1.144616   -0.127331
     17          6           0       -2.593257   -0.986280   -0.196600
     18          6           0       -2.172062    1.337364    0.191793
     19          6           0       -3.053727    0.270131    0.156387
     20          9           0       -0.826566   -2.384229   -0.823376
     21          9           0       -0.016539    2.186912   -0.092771
     22          9           0       -3.432546   -2.015695   -0.226846
     23          9           0       -2.612491    2.544035    0.532041
     24          9           0       -4.333114    0.451971    0.459439
     25          8           0        2.704065    1.754786    0.007966
     26          6           0        3.670829    2.576259   -0.651921
     27          1           0        3.697773    2.329371   -1.692700
     28          1           0        3.402602    3.605628   -0.536365
     29          1           0        4.635494    2.408446   -0.220458
 ---------------------------------------------------------------------
 Rotational constants (GHZ):           0.5583892           0.2643351           0.1934371
 Leave Link  202 at Wed Aug 28 23:32:57 2024, MaxMem=  8589934592 cpu:               0.0 elap:               0.0
 (Enter /share/apps/g16.b01_avx2/g16/l301.exe)
 Standard basis: def2TZVP (5D, 7F)
 Ernie: Thresh=  0.10000D-02 Tol=  0.10000D-05 Strict=F.
 There are   744 symmetry adapted cartesian basis functions of A   symmetry.
 There are   649 symmetry adapted basis functions of A   symmetry.
   649 basis functions,  1049 primitive gaussians,   744 cartesian basis functions
    73 alpha electrons       73 beta electrons
       nuclear repulsion energy      1625.0959847767 Hartrees.
 IExCor= 1009 DFT=T Ex+Corr=PBE1PBE ExCW=0 ScaHFX=  0.250000
 ScaDFX=  0.750000  0.750000  1.000000  1.000000 ScalE2=  1.000000  1.000000
 IRadAn=  99590 IRanWt=     -1 IRanGd=            0 ICorTp=0 IEmpDi=131
 NAtoms=   29 NActive=   29 NUniq=   29 SFac= 1.00D+00 NAtFMM=   60 NAOKFM=F Big=F
 Integral buffers will be    131072 words long.
 Raffenetti 2 integral format.
 Two-electron integral symmetry is turned on.
 R6Disp:  Grimme-D3 Dispersion energy=       -0.0184547273 Hartrees.
 Nuclear repulsion after empirical dispersion term =     1625.0775300493 Hartrees.
 ------------------------------------------------------------------------------
 Polarizable Continuum Model (PCM)
 =================================
 Model                : PCM.
 Atomic radii         : UFF (Universal Force Field).
 Polarization charges : Total charges.
 Charge compensation  : None.
 Solution method      : On-the-fly selection.
 Cavity type          : Scaled VdW (van der Waals Surface) (Alpha=1.100).
 Cavity algorithm     : GePol (No added spheres)
                        Default sphere list used, NSphG=   29.
                        Lebedev-Laikov grids with approx.  5.0 points / Ang**2.
                        Smoothing algorithm: York/Karplus (Gamma=1.0000).
                        Polarization charges: spherical gaussians, with
                                              point-specific exponents (IZeta= 3).
                        Self-potential: point-specific (ISelfS= 7).
                        Self-field    : sphere-specific E.n sum rule (ISelfD= 2).
 1st derivatives      : Analytical E(r).r(x)/FMM algorithm (CHGder, D1EAlg=3).
                        Cavity 1st derivative terms included.
 Solvent              : Water, Eps=  78.355300 Eps(inf)=   1.777849
 ------------------------------------------------------------------------------
 GePol: Number of generator spheres                  =      29
 GePol: Total number of spheres                      =      29
 GePol: Number of exposed spheres                    =      29 (100.00%)
 GePol: Number of points                             =    2394
 GePol: Average weight of points                     =       0.13
 GePol: Minimum weight of points                     =   0.86D-10
 GePol: Maximum weight of points                     =    0.20577
 GePol: Number of points with low weight             =     124
 GePol: Fraction of low-weight points (<1% of avg)   =       5.18%
 GePol: Cavity surface area                          =    303.506 Ang**2
 GePol: Cavity volume                                =    322.859 Ang**3
 Leave Link  301 at Wed Aug 28 23:32:57 2024, MaxMem=  8589934592 cpu:               0.8 elap:               0.0
 (Enter /share/apps/g16.b01_avx2/g16/l302.exe)
 NPDir=0 NMtPBC=     1 NCelOv=     1 NCel=       1 NClECP=     1 NCelD=      1
         NCelK=      1 NCelE2=     1 NClLst=     1 CellRange=     0.0.
 One-electron integrals computed using PRISM.
 One-electron integral symmetry used in STVInt
   1 Symmetry operations used in ECPInt.
 ECPInt:  NShTT=   31125 NPrTT=   97468 LenC2=   27062 LenP2D=   60045.
 LDataN:  DoStor=T MaxTD1= 6 Len=  172
 NBasis=   649 RedAO= T EigKep=  1.44D-05  NBF=   649
 NBsUse=   649 1.00D-06 EigRej= -1.00D+00 NBFU=   649
 Precomputing XC quadrature grid using
 IXCGrd= 4 IRadAn=       99590 IRanWt=          -1 IRanGd=           0 AccXCQ= 0.00D+00.
 Generated NRdTot=       0 NPtTot=           0 NUsed=           0 NTot=          32
 NSgBfM=   734   734   734   734   734 MxSgAt=    29 MxSgA2=    29.
 Leave Link  302 at Wed Aug 28 23:32:58 2024, MaxMem=  8589934592 cpu:              11.6 elap:               0.5
 (Enter /share/apps/g16.b01_avx2/g16/l303.exe)
 DipDrv:  MaxL=1.
 Leave Link  303 at Wed Aug 28 23:32:58 2024, MaxMem=  8589934592 cpu:               1.4 elap:               0.1
 (Enter /share/apps/g16.b01_avx2/g16/l401.exe)
 ExpMin= 9.52D-02 ExpMax= 3.55D+04 ExpMxC= 1.21D+03 IAcc=4 IRadAn=    199590 AccDes= 0.00D+00
 Harris functional with IExCor= 1009 and IRadAn=  199590 diagonalized for initial guess.
 HarFok:  IExCor= 1009 AccDes= 0.00D+00 IRadAn=    199590 IDoV= 1 UseB2=F ITyADJ=14
 ICtDFT=  3500011 ScaDFX=  1.000000  1.000000  1.000000  1.000000
 FoFCou: FMM=F IPFlag=           0 FMFlag=      100000 FMFlg1=           0
         NFxFlg=           0 DoJE=T BraDBF=F KetDBF=T FulRan=T
         wScrn=  0.000000 ICntrl=       500 IOpCl=  0 I1Cent=   200000004 NGrid=           0
         NMat0=    1 NMatS0=      1 NMatT0=    0 NMatD0=    1 NMtDS0=    0 NMtDT0=    0
 Petite list used in FoFCou.
 Harris En= -1166.02009249410    
 JPrj=0 DoOrth=F DoCkMO=F.
 Leave Link  401 at Wed Aug 28 23:33:01 2024, MaxMem=  8589934592 cpu:              79.4 elap:               3.3
 (Enter /share/apps/g16.b01_avx2/g16/l502.exe)
 Integral symmetry usage will be decided dynamically.
 Closed shell SCF:
 Using DIIS extrapolation, IDIIS=  1040.
 NGot=  8589934592 LenX=  8588803237 LenY=  8588248957
 Requested convergence on RMS density matrix=1.00D-08 within 128 cycles.
 Requested convergence on MAX density matrix=1.00D-06.
 Requested convergence on             energy=1.00D-06.
 No special actions if energy rises.
 Fock matrices will be formed incrementally for  20 cycles.

 Cycle   1  Pass 1  IDiag  1:
 FoFJK:  IHMeth= 1 ICntrl=       0 DoSepK=F KAlg= 0 I1Cent=           0 FoldK=F
 IRaf= 800000000 NMat=       1 IRICut=       1 DoRegI=T DoRafI=F ISym2E= 0 IDoP0=0 IntGTp=1.
 FoFCou: FMM=F IPFlag=           0 FMFlag=      100000 FMFlg1=           0
         NFxFlg=           0 DoJE=F BraDBF=F KetDBF=F FulRan=T
         wScrn=  0.000000 ICntrl=         0 IOpCl=  0 I1Cent=           0 NGrid=           0
         NMat0=    1 NMatS0=      1 NMatT0=    0 NMatD0=    1 NMtDS0=    0 NMtDT0=    0
 Symmetry not used in FoFCou.
 Inv3:  Mode=1 IEnd=    17193708.
 Iteration    1 A*A^-1 deviation from unit magnitude is 3.33D-15 for    639.
 Iteration    1 A*A^-1 deviation from orthogonality  is 1.88D-15 for   1749    140.
 Iteration    1 A^-1*A deviation from unit magnitude is 3.33D-15 for    626.
 Iteration    1 A^-1*A deviation from orthogonality  is 5.99D-15 for   2102   2091.
 E= -1165.63800460540    
 DIIS: error= 1.46D-02 at cycle   1 NSaved=   1.
 NSaved= 1 IEnMin= 1 EnMin= -1165.63800460540     IErMin= 1 ErrMin= 1.46D-02
 ErrMax= 1.46D-02  0.00D+00 EMaxC= 1.00D-01 BMatC= 3.90D-01 BMatP= 3.90D-01
 IDIUse=3 WtCom= 8.54D-01 WtEn= 1.46D-01
 Coeff-Com:  0.100D+01
 Coeff-En:   0.100D+01
 Coeff:      0.100D+01
 Gap=     0.262 Goal=   None    Shift=    0.000
 GapD=    0.262 DampG=1.000 DampE=0.500 DampFc=0.5000 IDamp=-1.
 Damping current iteration by 5.00D-01
 RMSDP=3.53D-03 MaxDP=5.69D-01              OVMax= 2.63D-01

 Cycle   2  Pass 1  IDiag  1:
 RMSU=  1.76D-03    CP:  1.01D+00
 E= -1165.74142853351     Delta-E=       -0.103423928115 Rises=F Damp=T
 DIIS: error= 4.44D-03 at cycle   2 NSaved=   2.
 NSaved= 2 IEnMin= 2 EnMin= -1165.74142853351     IErMin= 2 ErrMin= 4.44D-03
 ErrMax= 4.44D-03  0.00D+00 EMaxC= 1.00D-01 BMatC= 4.55D-02 BMatP= 3.90D-01
 IDIUse=3 WtCom= 9.56D-01 WtEn= 4.44D-02
 Coeff-Com:  0.945D-01 0.905D+00
 Coeff-En:   0.205D+00 0.795D+00
 Coeff:      0.994D-01 0.901D+00
 Gap=     0.288 Goal=   None    Shift=    0.000
 RMSDP=1.22D-03 MaxDP=2.14D-01 DE=-1.03D-01 OVMax= 1.56D-01

 Cycle   3  Pass 1  IDiag  1:
 RMSU=  6.86D-04    CP:  9.92D-01  4.33D-01
 E= -1165.88296780975     Delta-E=       -0.141539276237 Rises=F Damp=F
 DIIS: error= 5.13D-03 at cycle   3 NSaved=   3.
 NSaved= 3 IEnMin= 3 EnMin= -1165.88296780975     IErMin= 2 ErrMin= 4.44D-03
 ErrMax= 5.13D-03  0.00D+00 EMaxC= 1.00D-01 BMatC= 4.13D-02 BMatP= 4.55D-02
 IDIUse=3 WtCom= 9.49D-01 WtEn= 5.13D-02
 Coeff-Com: -0.507D-01 0.498D+00 0.553D+00
 Coeff-En:   0.000D+00 0.000D+00 0.100D+01
 Coeff:     -0.481D-01 0.472D+00 0.576D+00
 Gap=     0.245 Goal=   None    Shift=    0.000
 RMSDP=3.45D-04 MaxDP=2.44D-02 DE=-1.42D-01 OVMax= 5.24D-02

 Cycle   4  Pass 1  IDiag  1:
 RMSU=  2.92D-04    CP:  9.91D-01  5.08D-01  8.15D-01
 E= -1165.90898762574     Delta-E=       -0.026019815988 Rises=F Damp=F
 DIIS: error= 2.00D-03 at cycle   4 NSaved=   4.
 NSaved= 4 IEnMin= 4 EnMin= -1165.90898762574     IErMin= 4 ErrMin= 2.00D-03
 ErrMax= 2.00D-03  0.00D+00 EMaxC= 1.00D-01 BMatC= 4.43D-03 BMatP= 4.13D-02
 IDIUse=3 WtCom= 9.80D-01 WtEn= 2.00D-02
 Coeff-Com: -0.367D-01 0.131D+00 0.293D+00 0.613D+00
 Coeff-En:   0.000D+00 0.000D+00 0.646D-01 0.935D+00
 Coeff:     -0.360D-01 0.128D+00 0.289D+00 0.619D+00
 Gap=     0.241 Goal=   None    Shift=    0.000
 RMSDP=1.21D-04 MaxDP=7.26D-03 DE=-2.60D-02 OVMax= 1.48D-02

 Cycle   5  Pass 1  IDiag  1:
 RMSU=  7.03D-05    CP:  9.90D-01  5.19D-01  8.98D-01  7.33D-01
 E= -1165.91210652028     Delta-E=       -0.003118894546 Rises=F Damp=F
 DIIS: error= 4.18D-04 at cycle   5 NSaved=   5.
 NSaved= 5 IEnMin= 5 EnMin= -1165.91210652028     IErMin= 5 ErrMin= 4.18D-04
 ErrMax= 4.18D-04  0.00D+00 EMaxC= 1.00D-01 BMatC= 4.67D-04 BMatP= 4.43D-03
 IDIUse=3 WtCom= 9.96D-01 WtEn= 4.18D-03
 Coeff-Com: -0.169D-01 0.420D-01 0.118D+00 0.345D+00 0.512D+00
 Coeff-En:   0.000D+00 0.000D+00 0.000D+00 0.985D-02 0.990D+00
 Coeff:     -0.168D-01 0.418D-01 0.118D+00 0.343D+00 0.514D+00
 Gap=     0.242 Goal=   None    Shift=    0.000
 RMSDP=4.20D-05 MaxDP=3.10D-03 DE=-3.12D-03 OVMax= 5.53D-03

 Cycle   6  Pass 1  IDiag  1:
 RMSU=  1.97D-05    CP:  9.91D-01  5.15D-01  8.81D-01  7.76D-01  5.44D-01
 E= -1165.91243376604     Delta-E=       -0.000327245761 Rises=F Damp=F
 DIIS: error= 1.06D-04 at cycle   6 NSaved=   6.
 NSaved= 6 IEnMin= 6 EnMin= -1165.91243376604     IErMin= 6 ErrMin= 1.06D-04
 ErrMax= 1.06D-04  0.00D+00 EMaxC= 1.00D-01 BMatC= 3.30D-05 BMatP= 4.67D-04
 IDIUse=3 WtCom= 9.99D-01 WtEn= 1.06D-03
 Coeff-Com: -0.595D-02 0.107D-01 0.344D-01 0.125D+00 0.272D+00 0.563D+00
 Coeff-En:   0.000D+00 0.000D+00 0.000D+00 0.000D+00 0.000D+00 0.100D+01
 Coeff:     -0.594D-02 0.107D-01 0.344D-01 0.125D+00 0.272D+00 0.564D+00
 Gap=     0.242 Goal=   None    Shift=    0.000
 RMSDP=1.04D-05 MaxDP=8.61D-04 DE=-3.27D-04 OVMax= 1.27D-03

 Cycle   7  Pass 1  IDiag  1:
 RMSU=  6.51D-06    CP:  9.91D-01  5.17D-01  8.83D-01  7.63D-01  5.92D-01
                    CP:  7.41D-01
 E= -1165.91245808262     Delta-E=       -0.000024316578 Rises=F Damp=F
 DIIS: error= 3.48D-05 at cycle   7 NSaved=   7.
 NSaved= 7 IEnMin= 7 EnMin= -1165.91245808262     IErMin= 7 ErrMin= 3.48D-05
 ErrMax= 3.48D-05  0.00D+00 EMaxC= 1.00D-01 BMatC= 1.56D-06 BMatP= 3.30D-05
 IDIUse=1 WtCom= 1.00D+00 WtEn= 0.00D+00
 Coeff-Com: -0.139D-02 0.170D-02 0.589D-02 0.289D-01 0.818D-01 0.244D+00
 Coeff-Com:  0.639D+00
 Coeff:     -0.139D-02 0.170D-02 0.589D-02 0.289D-01 0.818D-01 0.244D+00
 Coeff:      0.639D+00
 Gap=     0.242 Goal=   None    Shift=    0.000
 RMSDP=2.70D-06 MaxDP=2.99D-04 DE=-2.43D-05 OVMax= 1.96D-04

 Cycle   8  Pass 1  IDiag  1:
 RMSU=  1.45D-06    CP:  9.91D-01  5.16D-01  8.83D-01  7.67D-01  5.95D-01
                    CP:  7.79D-01  8.44D-01
 E= -1165.91245911190     Delta-E=       -0.000001029276 Rises=F Damp=F
 DIIS: error= 1.15D-05 at cycle   8 NSaved=   8.
 NSaved= 8 IEnMin= 8 EnMin= -1165.91245911190     IErMin= 8 ErrMin= 1.15D-05
 ErrMax= 1.15D-05  0.00D+00 EMaxC= 1.00D-01 BMatC= 1.73D-07 BMatP= 1.56D-06
 IDIUse=1 WtCom= 1.00D+00 WtEn= 0.00D+00
 Coeff-Com: -0.103D-03-0.794D-04-0.462D-03 0.129D-02 0.107D-01 0.533D-01
 Coeff-Com:  0.292D+00 0.644D+00
 Coeff:     -0.103D-03-0.794D-04-0.462D-03 0.129D-02 0.107D-01 0.533D-01
 Coeff:      0.292D+00 0.644D+00
 Gap=     0.242 Goal=   None    Shift=    0.000
 RMSDP=6.62D-07 MaxDP=4.79D-05 DE=-1.03D-06 OVMax= 8.23D-05

 Cycle   9  Pass 1  IDiag  1:
 RMSU=  5.01D-07    CP:  9.91D-01  5.16D-01  8.83D-01  7.66D-01  5.95D-01
                    CP:  7.89D-01  8.83D-01  8.58D-01
 E= -1165.91245923527     Delta-E=       -0.000000123369 Rises=F Damp=F
 DIIS: error= 3.55D-06 at cycle   9 NSaved=   9.
 NSaved= 9 IEnMin= 9 EnMin= -1165.91245923527     IErMin= 9 ErrMin= 3.55D-06
 ErrMax= 3.55D-06  0.00D+00 EMaxC= 1.00D-01 BMatC= 1.92D-08 BMatP= 1.73D-07
 IDIUse=1 WtCom= 1.00D+00 WtEn= 0.00D+00
 Coeff-Com:  0.793D-04-0.206D-03-0.797D-03-0.212D-02-0.282D-02 0.432D-03
 Coeff-Com:  0.689D-01 0.313D+00 0.624D+00
 Coeff:      0.793D-04-0.206D-03-0.797D-03-0.212D-02-0.282D-02 0.432D-03
 Coeff:      0.689D-01 0.313D+00 0.624D+00
 Gap=     0.242 Goal=   None    Shift=    0.000
 RMSDP=2.08D-07 MaxDP=1.04D-05 DE=-1.23D-07 OVMax= 3.16D-05

 Cycle  10  Pass 1  IDiag  1:
 RMSU=  1.14D-07    CP:  9.91D-01  5.16D-01  8.83D-01  7.66D-01  5.94D-01
                    CP:  7.90D-01  8.97D-01  9.15D-01  8.01D-01
 E= -1165.91245925136     Delta-E=       -0.000000016096 Rises=F Damp=F
 DIIS: error= 7.72D-07 at cycle  10 NSaved=  10.
 NSaved=10 IEnMin=10 EnMin= -1165.91245925136     IErMin=10 ErrMin= 7.72D-07
 ErrMax= 7.72D-07  0.00D+00 EMaxC= 1.00D-01 BMatC= 6.36D-10 BMatP= 1.92D-08
 IDIUse=1 WtCom= 1.00D+00 WtEn= 0.00D+00
 Coeff-Com:  0.302D-04-0.719D-04-0.297D-03-0.844D-03-0.145D-02-0.162D-02
 Coeff-Com:  0.177D-01 0.104D+00 0.246D+00 0.637D+00
 Coeff:      0.302D-04-0.719D-04-0.297D-03-0.844D-03-0.145D-02-0.162D-02
 Coeff:      0.177D-01 0.104D+00 0.246D+00 0.637D+00
 Gap=     0.242 Goal=   None    Shift=    0.000
 RMSDP=5.05D-08 MaxDP=3.14D-06 DE=-1.61D-08 OVMax= 9.65D-06

 Cycle  11  Pass 1  IDiag  1:
 RMSU=  4.09D-08    CP:  9.91D-01  5.16D-01  8.83D-01  7.66D-01  5.94D-01
                    CP:  7.91D-01  9.00D-01  9.18D-01  8.29D-01  9.09D-01
 E= -1165.91245925177     Delta-E=       -0.000000000404 Rises=F Damp=F
 DIIS: error= 5.16D-07 at cycle  11 NSaved=  11.
 NSaved=11 IEnMin=11 EnMin= -1165.91245925177     IErMin=11 ErrMin= 5.16D-07
 ErrMax= 5.16D-07  0.00D+00 EMaxC= 1.00D-01 BMatC= 1.93D-10 BMatP= 6.36D-10
 IDIUse=1 WtCom= 1.00D+00 WtEn= 0.00D+00
 Coeff-Com:  0.427D-05-0.627D-05-0.456D-04-0.133D-03-0.376D-03-0.979D-03
 Coeff-Com: -0.209D-02 0.479D-02 0.297D-01 0.364D+00 0.606D+00
 Coeff:      0.427D-05-0.627D-05-0.456D-04-0.133D-03-0.376D-03-0.979D-03
 Coeff:     -0.209D-02 0.479D-02 0.297D-01 0.364D+00 0.606D+00
 Gap=     0.242 Goal=   None    Shift=    0.000
 RMSDP=2.24D-08 MaxDP=2.40D-06 DE=-4.04D-10 OVMax= 3.88D-06

 Cycle  12  Pass 1  IDiag  1:
 RMSU=  1.18D-08    CP:  9.91D-01  5.16D-01  8.83D-01  7.66D-01  5.94D-01
                    CP:  7.91D-01  9.00D-01  9.23D-01  8.35D-01  9.87D-01
                    CP:  8.20D-01
 E= -1165.91245925194     Delta-E=       -0.000000000169 Rises=F Damp=F
 DIIS: error= 5.31D-08 at cycle  12 NSaved=  12.
 NSaved=12 IEnMin=12 EnMin= -1165.91245925194     IErMin=12 ErrMin= 5.31D-08
 ErrMax= 5.31D-08  0.00D+00 EMaxC= 1.00D-01 BMatC= 6.01D-12 BMatP= 1.93D-10
 IDIUse=1 WtCom= 1.00D+00 WtEn= 0.00D+00
 Coeff-Com: -0.765D-06 0.321D-05 0.212D-05 0.110D-04-0.447D-04-0.200D-03
 Coeff-Com: -0.204D-02-0.586D-02-0.802D-02 0.913D-01 0.211D+00 0.713D+00
 Coeff:     -0.765D-06 0.321D-05 0.212D-05 0.110D-04-0.447D-04-0.200D-03
 Coeff:     -0.204D-02-0.586D-02-0.802D-02 0.913D-01 0.211D+00 0.713D+00
 Gap=     0.242 Goal=   None    Shift=    0.000
 RMSDP=5.75D-09 MaxDP=3.82D-07 DE=-1.69D-10 OVMax= 6.18D-07

 Error on total polarization charges =  0.01035
 SCF Done:  E(RPBE1PBE) =  -1165.91245925     A.U. after   12 cycles
            NFock= 12  Conv=0.58D-08     -V/T= 2.0038
 KE= 1.161504293750D+03 PE=-6.001842076914D+03 EE= 2.049347793863D+03
 Leave Link  502 at Wed Aug 28 23:34:41 2024, MaxMem=  8589934592 cpu:            2383.5 elap:              99.8
 (Enter /share/apps/g16.b01_avx2/g16/l601.exe)
 Copying SCF densities to generalized density rwf, IOpCl= 0 IROHF=0.

 **********************************************************************

            Population analysis using the SCF Density.

 **********************************************************************

 Orbital symmetries:
       Occupied  (A) (A) (A) (A) (A) (A) (A) (A) (A) (A) (A) (A)
                 (A) (A) (A) (A) (A) (A) (A) (A) (A) (A) (A) (A)
                 (A) (A) (A) (A) (A) (A) (A) (A) (A) (A) (A) (A)
                 (A) (A) (A) (A) (A) (A) (A) (A) (A) (A) (A) (A)
                 (A) (A) (A) (A) (A) (A) (A) (A) (A) (A) (A) (A)
                 (A) (A) (A) (A) (A) (A) (A) (A) (A) (A) (A) (A)
                 (A)
       Virtual   (A) (A) (A) (A) (A) (A) (A) (A) (A) (A) (A) (A)
                 (A) (A) (A) (A) (A) (A) (A) (A) (A) (A) (A) (A)
                 (A) (A) (A) (A) (A) (A) (A) (A) (A) (A) (A) (A)
                 (A) (A) (A) (A) (A) (A) (A) (A) (A) (A) (A) (A)
                 (A) (A) (A) (A) (A) (A) (A) (A) (A) (A) (A) (A)
                 (A) (A) (A) (A) (A) (A) (A) (A) (A) (A) (A) (A)
                 (A) (A) (A) (A) (A) (A) (A) (A) (A) (A) (A) (A)
                 (A) (A) (A) (A) (A) (A) (A) (A) (A) (A) (A) (A)
                 (A) (A) (A) (A) (A) (A) (A) (A) (A) (A) (A) (A)
                 (A) (A) (A) (A) (A) (A) (A) (A) (A) (A) (A) (A)
                 (A) (A) (A) (A) (A) (A) (A) (A) (A) (A) (A) (A)
                 (A) (A) (A) (A) (A) (A) (A) (A) (A) (A) (A) (A)
                 (A) (A) (A) (A) (A) (A) (A) (A) (A) (A) (A) (A)
                 (A) (A) (A) (A) (A) (A) (A) (A) (A) (A) (A) (A)
                 (A) (A) (A) (A) (A) (A) (A) (A) (A) (A) (A) (A)
                 (A) (A) (A) (A) (A) (A) (A) (A) (A) (A) (A) (A)
                 (A) (A) (A) (A) (A) (A) (A) (A) (A) (A) (A) (A)
                 (A) (A) (A) (A) (A) (A) (A) (A) (A) (A) (A) (A)
                 (A) (A) (A) (A) (A) (A) (A) (A) (A) (A) (A) (A)
                 (A) (A) (A) (A) (A) (A) (A) (A) (A) (A) (A) (A)
                 (A) (A) (A) (A) (A) (A) (A) (A) (A) (A) (A) (A)
                 (A) (A) (A) (A) (A) (A) (A) (A) (A) (A) (A) (A)
                 (A) (A) (A) (A) (A) (A) (A) (A) (A) (A) (A) (A)
                 (A) (A) (A) (A) (A) (A) (A) (A) (A) (A) (A) (A)
                 (A) (A) (A) (A) (A) (A) (A) (A) (A) (A) (A) (A)
                 (A) (A) (A) (A) (A) (A) (A) (A) (A) (A) (A) (A)
                 (A) (A) (A) (A) (A) (A) (A) (A) (A) (A) (A) (A)
                 (A) (A) (A) (A) (A) (A) (A) (A) (A) (A) (A) (A)
                 (A) (A) (A) (A) (A) (A) (A) (A) (A) (A) (A) (A)
                 (A) (A) (A) (A) (A) (A) (A) (A) (A) (A) (A) (A)
                 (A) (A) (A) (A) (A) (A) (A) (A) (A) (A) (A) (A)
                 (A) (A) (A) (A) (A) (A) (A) (A) (A) (A) (A) (A)
                 (A) (A) (A) (A) (A) (A) (A) (A) (A) (A) (A) (A)
                 (A) (A) (A) (A) (A) (A) (A) (A) (A) (A) (A) (A)
                 (A) (A) (A) (A) (A) (A) (A) (A) (A) (A) (A) (A)
                 (A) (A) (A) (A) (A) (A) (A) (A) (A) (A) (A) (A)
                 (A) (A) (A) (A) (A) (A) (A) (A) (A) (A) (A) (A)
                 (A) (A) (A) (A) (A) (A) (A) (A) (A) (A) (A) (A)
                 (A) (A) (A) (A) (A) (A) (A) (A) (A) (A) (A) (A)
                 (A) (A) (A) (A) (A) (A) (A) (A) (A) (A) (A) (A)
                 (A) (A) (A) (A) (A) (A) (A) (A) (A) (A) (A) (A)
                 (A) (A) (A) (A) (A) (A) (A) (A) (A) (A) (A) (A)
                 (A) (A) (A) (A) (A) (A) (A) (A) (A) (A) (A) (A)
                 (A) (A) (A) (A) (A) (A) (A) (A) (A) (A) (A) (A)
                 (A) (A) (A) (A) (A) (A) (A) (A) (A) (A) (A) (A)
                 (A) (A) (A) (A) (A) (A) (A) (A) (A) (A) (A) (A)
                 (A) (A) (A) (A) (A) (A) (A) (A) (A) (A) (A) (A)
                 (A) (A) (A) (A) (A) (A) (A) (A) (A) (A) (A) (A)
 The electronic state is 1-A.
 Alpha  occ. eigenvalues --  -24.81530 -24.81405 -24.81326 -24.81299 -24.80157
 Alpha  occ. eigenvalues --  -19.22928 -19.21330 -19.15180 -14.47333 -10.36271
 Alpha  occ. eigenvalues --  -10.33968 -10.33800 -10.33679 -10.33310 -10.33076
 Alpha  occ. eigenvalues --  -10.30691 -10.27178 -10.26702 -10.25200  -1.30674
 Alpha  occ. eigenvalues --   -1.29937  -1.29219  -1.28500  -1.27932  -1.10970
 Alpha  occ. eigenvalues --   -1.06071  -1.03330  -0.98870  -0.92316  -0.80586
 Alpha  occ. eigenvalues --   -0.80403  -0.76934  -0.73710  -0.69766  -0.69190
 Alpha  occ. eigenvalues --   -0.68081  -0.62904  -0.62178  -0.61600  -0.59388
 Alpha  occ. eigenvalues --   -0.58568  -0.57218  -0.56531  -0.55909  -0.55024
 Alpha  occ. eigenvalues --   -0.54825  -0.52443  -0.52009  -0.51420  -0.50085
 Alpha  occ. eigenvalues --   -0.49555  -0.49289  -0.48699  -0.47849  -0.47218
 Alpha  occ. eigenvalues --   -0.47019  -0.46769  -0.44253  -0.43993  -0.43503
 Alpha  occ. eigenvalues --   -0.42076  -0.41686  -0.41368  -0.40576  -0.40233
 Alpha  occ. eigenvalues --   -0.36644  -0.34671  -0.32369  -0.29518  -0.27876
 Alpha  occ. eigenvalues --   -0.26979  -0.26757  -0.25924
 Alpha virt. eigenvalues --   -0.01744  -0.00991  -0.00837   0.03510   0.05203
 Alpha virt. eigenvalues --    0.07473   0.07703   0.08478   0.08802   0.09960
 Alpha virt. eigenvalues --    0.11640   0.11822   0.12173   0.12410   0.13097
 Alpha virt. eigenvalues --    0.13652   0.14559   0.15291   0.16191   0.16373
 Alpha virt. eigenvalues --    0.17730   0.18210   0.18774   0.19629   0.20541
 Alpha virt. eigenvalues --    0.20776   0.21163   0.21587   0.22416   0.23332
 Alpha virt. eigenvalues --    0.24401   0.24847   0.25492   0.26470   0.27079
 Alpha virt. eigenvalues --    0.28937   0.29119   0.29648   0.29692   0.30760
 Alpha virt. eigenvalues --    0.31107   0.31853   0.32485   0.33307   0.33438
 Alpha virt. eigenvalues --    0.34268   0.34457   0.35408   0.36925   0.37250
 Alpha virt. eigenvalues --    0.38269   0.39561   0.39622   0.40006   0.40759
 Alpha virt. eigenvalues --    0.40831   0.41047   0.41960   0.42658   0.43150
 Alpha virt. eigenvalues --    0.43498   0.44127   0.44535   0.44851   0.45234
 Alpha virt. eigenvalues --    0.45501   0.46143   0.46633   0.47212   0.47781
 Alpha virt. eigenvalues --    0.48500   0.49142   0.49785   0.50279   0.51238
 Alpha virt. eigenvalues --    0.51739   0.53628   0.53904   0.54543   0.55270
 Alpha virt. eigenvalues --    0.55976   0.57125   0.58344   0.58697   0.61572
 Alpha virt. eigenvalues --    0.62064   0.62804   0.63362   0.64417   0.64800
 Alpha virt. eigenvalues --    0.65345   0.66473   0.67484   0.68520   0.70224
 Alpha virt. eigenvalues --    0.70959   0.71467   0.72079   0.73314   0.73649
 Alpha virt. eigenvalues --    0.74795   0.76160   0.77088   0.77817   0.78562
 Alpha virt. eigenvalues --    0.79368   0.80904   0.81441   0.82949   0.82998
 Alpha virt. eigenvalues --    0.84120   0.84327   0.85524   0.85894   0.86327
 Alpha virt. eigenvalues --    0.87218   0.87518   0.88596   0.88900   0.89622
 Alpha virt. eigenvalues --    0.90359   0.92659   0.94256   0.94781   0.95237
 Alpha virt. eigenvalues --    0.96213   0.96396   0.97484   0.98130   0.99388
 Alpha virt. eigenvalues --    1.00499   1.01367   1.01967   1.02777   1.03727
 Alpha virt. eigenvalues --    1.04786   1.05595   1.07128   1.08938   1.09629
 Alpha virt. eigenvalues --    1.10121   1.11127   1.12433   1.13034   1.14611
 Alpha virt. eigenvalues --    1.14903   1.16540   1.17819   1.18969   1.20762
 Alpha virt. eigenvalues --    1.20968   1.21793   1.24469   1.26071   1.27877
 Alpha virt. eigenvalues --    1.29624   1.31245   1.32714   1.33250   1.34826
 Alpha virt. eigenvalues --    1.36140   1.37001   1.38867   1.40429   1.41314
 Alpha virt. eigenvalues --    1.43732   1.44968   1.45328   1.45937   1.47078
 Alpha virt. eigenvalues --    1.48114   1.48602   1.49214   1.50483   1.52095
 Alpha virt. eigenvalues --    1.53596   1.54204   1.54733   1.55597   1.56836
 Alpha virt. eigenvalues --    1.57444   1.57855   1.58670   1.59101   1.62489
 Alpha virt. eigenvalues --    1.63120   1.63579   1.65060   1.65831   1.67105
 Alpha virt. eigenvalues --    1.68835   1.71939   1.72788   1.73283   1.74104
 Alpha virt. eigenvalues --    1.75594   1.76711   1.77567   1.79831   1.80106
 Alpha virt. eigenvalues --    1.80443   1.82740   1.83202   1.83909   1.86265
 Alpha virt. eigenvalues --    1.87115   1.88722   1.90279   1.92195   1.93646
 Alpha virt. eigenvalues --    1.94191   1.95303   1.96166   1.96710   1.97901
 Alpha virt. eigenvalues --    1.98923   2.00006   2.00480   2.02358   2.03009
 Alpha virt. eigenvalues --    2.04761   2.04945   2.05254   2.06621   2.07385
 Alpha virt. eigenvalues --    2.07937   2.08674   2.09123   2.09993   2.14681
 Alpha virt. eigenvalues --    2.15065   2.15790   2.16149   2.17511   2.19319
 Alpha virt. eigenvalues --    2.20149   2.20747   2.21720   2.21960   2.23537
 Alpha virt. eigenvalues --    2.25305   2.26083   2.27252   2.29195   2.30831
 Alpha virt. eigenvalues --    2.31206   2.31659   2.33026   2.33997   2.34542
 Alpha virt. eigenvalues --    2.34835   2.36551   2.37535   2.38983   2.39960
 Alpha virt. eigenvalues --    2.44014   2.44339   2.45471   2.47554   2.48508
 Alpha virt. eigenvalues --    2.49333   2.50337   2.51078   2.52248   2.53119
 Alpha virt. eigenvalues --    2.54322   2.55460   2.57022   2.57553   2.58322
 Alpha virt. eigenvalues --    2.59346   2.59896   2.61048   2.62100   2.62833
 Alpha virt. eigenvalues --    2.62938   2.63647   2.64311   2.65152   2.65842
 Alpha virt. eigenvalues --    2.67599   2.68184   2.69023   2.71167   2.72891
 Alpha virt. eigenvalues --    2.74596   2.77082   2.78510   2.78791   2.80944
 Alpha virt. eigenvalues --    2.81603   2.82297   2.82898   2.83412   2.84862
 Alpha virt. eigenvalues --    2.85404   2.86233   2.87067   2.88389   2.89607
 Alpha virt. eigenvalues --    2.90550   2.91435   2.92313   2.92483   2.94237
 Alpha virt. eigenvalues --    2.94489   2.95673   2.96288   2.96481   2.98211
 Alpha virt. eigenvalues --    2.99189   3.01008   3.02749   3.03590   3.05570
 Alpha virt. eigenvalues --    3.06019   3.07249   3.07689   3.09803   3.10537
 Alpha virt. eigenvalues --    3.11395   3.11936   3.13518   3.14003   3.14217
 Alpha virt. eigenvalues --    3.15780   3.16316   3.17821   3.18404   3.19131
 Alpha virt. eigenvalues --    3.20177   3.20454   3.21525   3.21976   3.23011
 Alpha virt. eigenvalues --    3.23130   3.23376   3.24768   3.25560   3.26469
 Alpha virt. eigenvalues --    3.27523   3.28612   3.30255   3.31428   3.32917
 Alpha virt. eigenvalues --    3.32971   3.35531   3.36452   3.36899   3.38143
 Alpha virt. eigenvalues --    3.40368   3.42173   3.42783   3.43543   3.44555
 Alpha virt. eigenvalues --    3.44930   3.45421   3.46165   3.47462   3.47988
 Alpha virt. eigenvalues --    3.49052   3.50187   3.51026   3.51163   3.52160
 Alpha virt. eigenvalues --    3.54035   3.54757   3.55585   3.55917   3.57685
 Alpha virt. eigenvalues --    3.58822   3.61505   3.61889   3.62236   3.63687
 Alpha virt. eigenvalues --    3.63853   3.66812   3.69812   3.71117   3.72833
 Alpha virt. eigenvalues --    3.74561   3.75866   3.77076   3.79066   3.80948
 Alpha virt. eigenvalues --    3.82222   3.83083   3.84227   3.86438   3.86889
 Alpha virt. eigenvalues --    3.88027   3.89164   3.93948   3.97000   3.98956
 Alpha virt. eigenvalues --    4.00523   4.03409   4.04552   4.04928   4.06689
 Alpha virt. eigenvalues --    4.08336   4.09923   4.13332   4.14095   4.14171
 Alpha virt. eigenvalues --    4.15923   4.16383   4.17228   4.18967   4.21514
 Alpha virt. eigenvalues --    4.22441   4.22732   4.24094   4.27186   4.29514
 Alpha virt. eigenvalues --    4.31978   4.32570   4.36369   4.37417   4.39402
 Alpha virt. eigenvalues --    4.40331   4.42499   4.42691   4.44174   4.45280
 Alpha virt. eigenvalues --    4.48670   4.50399   4.52836   4.54046   4.58333
 Alpha virt. eigenvalues --    4.61751   4.65249   4.69004   4.72384   4.78763
 Alpha virt. eigenvalues --    4.79611   4.82523   4.85403   4.85607   4.86680
 Alpha virt. eigenvalues --    4.87788   4.90629   4.92111   4.97145   5.00602
 Alpha virt. eigenvalues --    5.02340   5.09050   5.11336   5.15900   5.17026
 Alpha virt. eigenvalues --    5.22647   5.26295   5.28866   5.31648   5.37875
 Alpha virt. eigenvalues --    5.38220   5.39677   5.43187   5.44886   5.45958
 Alpha virt. eigenvalues --    5.47678   5.51029   5.55331   5.57393   5.61274
 Alpha virt. eigenvalues --    5.66994   5.70797   5.74721   5.76132   5.80455
 Alpha virt. eigenvalues --    5.84453   5.87165   5.87349   5.94057   6.06006
 Alpha virt. eigenvalues --    6.14567   6.16520   6.27045   6.32197   6.38533
 Alpha virt. eigenvalues --    6.41694   6.43557   6.51908   6.61041   6.72490
 Alpha virt. eigenvalues --    6.76264   6.76782   6.79041   6.84954   6.85303
 Alpha virt. eigenvalues --    6.85643   6.85885   6.86431   6.86587   6.86946
 Alpha virt. eigenvalues --    6.87260   6.87669   6.87719   6.90263   6.91745
 Alpha virt. eigenvalues --    6.94345   6.96616   6.98074   7.01288   7.03035
 Alpha virt. eigenvalues --    7.04538   7.07065   7.07205   7.09736   7.10631
 Alpha virt. eigenvalues --    7.12462   7.14862   7.17493   7.18564   7.20630
 Alpha virt. eigenvalues --    7.23682   7.24945   7.27119   7.29250   7.29920
 Alpha virt. eigenvalues --    7.29979   7.32814   7.36043   7.37045   7.41648
 Alpha virt. eigenvalues --    7.43970   7.47022   7.50971   7.67141   7.67781
 Alpha virt. eigenvalues --    7.75910   8.09257   8.31018   8.33510   8.35960
 Alpha virt. eigenvalues --    8.38048   8.42982   8.43380   8.54270   8.56769
 Alpha virt. eigenvalues --    8.59319   8.69595   8.73107   8.76657   8.77583
 Alpha virt. eigenvalues --    8.80330   8.81199   8.87637   8.89876   8.93322
 Alpha virt. eigenvalues --    8.94813   9.02293   9.03991   9.07853   9.10079
 Alpha virt. eigenvalues --    9.13337   9.40367  22.28550  22.42432  22.45738
 Alpha virt. eigenvalues --   22.63753  22.97516  22.98811  23.03291  23.13737
 Alpha virt. eigenvalues --   23.15397  23.75748  32.29557  44.17252  44.24762
 Alpha virt. eigenvalues --   44.59153  57.20474  57.40401  57.46745  57.54292
 Alpha virt. eigenvalues --   57.65460
          Condensed to atoms (all electrons):
               1          2          3          4          5          6
     1  H    0.414695   0.005914  -0.012451   0.343551  -0.018745  -0.017776
     2  O    0.005914   8.046242   0.687187  -0.095074   0.004850  -0.011853
     3  C   -0.012451   0.687187   4.760216   0.109938   0.003141  -0.042346
     4  N    0.343551  -0.095074   0.109938   6.300394   0.342528   0.277404
     5  H   -0.018745   0.004850   0.003141   0.342528   0.408101  -0.022487
     6  C   -0.017776  -0.011853  -0.042346   0.277404  -0.022487   4.918378
     7  H    0.005843   0.000462  -0.012765  -0.029393  -0.005196   0.411459
     8  H   -0.003211   0.017601   0.006405  -0.040196   0.006525   0.400795
     9  H   -0.007128  -0.000177   0.005315  -0.019582  -0.003836   0.400134
    10  C    0.008728  -0.077170   0.309314  -0.030835  -0.007448   0.015703
    11  H   -0.000586   0.002932  -0.050343  -0.001415   0.000063   0.003923
    12  H   -0.000189   0.005108  -0.028921   0.011467   0.000266  -0.002631
    13  O   -0.003153  -0.085203   0.195308  -0.035883   0.002689   0.005476
    14  C   -0.004263  -0.038676  -0.143558   0.031392  -0.000434  -0.000755
    15  C    0.000806   0.035952   0.004708  -0.017531   0.002076   0.000571
    16  C    0.000257   0.036391  -0.029072   0.006378  -0.000498  -0.000095
    17  C   -0.000993  -0.004756   0.002124   0.000102   0.000026   0.000103
    18  C    0.000009  -0.006114   0.001666   0.000127  -0.000031  -0.000013
    19  C    0.000005   0.000740   0.000313  -0.000109   0.000006   0.000001
    20  F    0.010160  -0.000632  -0.000643  -0.001962   0.000159  -0.000092
    21  F   -0.000000  -0.001013   0.000680  -0.000064  -0.000002   0.000001
    22  F   -0.000018  -0.000001   0.000032  -0.000001  -0.000000   0.000000
    23  F   -0.000000   0.000000   0.000022  -0.000000   0.000000   0.000000
    24  F    0.000000  -0.000000  -0.000002   0.000000   0.000000  -0.000000
    25  O   -0.000157  -0.004167  -0.064547   0.001784   0.000009  -0.000300
    26  C    0.000040  -0.000470   0.002082  -0.000276  -0.000031   0.000108
    27  H    0.000008  -0.000083   0.000262  -0.000003   0.000044  -0.000025
    28  H   -0.000001   0.000090  -0.000123   0.000015  -0.000004   0.000002
    29  H   -0.000003   0.000008  -0.001299   0.000003  -0.000004   0.000038
               7          8          9         10         11         12
     1  H    0.005843  -0.003211  -0.007128   0.008728  -0.000586  -0.000189
     2  O    0.000462   0.017601  -0.000177  -0.077170   0.002932   0.005108
     3  C   -0.012765   0.006405   0.005315   0.309314  -0.050343  -0.028921
     4  N   -0.029393  -0.040196  -0.019582  -0.030835  -0.001415   0.011467
     5  H   -0.005196   0.006525  -0.003836  -0.007448   0.000063   0.000266
     6  C    0.411459   0.400795   0.400134   0.015703   0.003923  -0.002631
     7  H    0.485920  -0.019101  -0.017394   0.009525  -0.003618   0.000101
     8  H   -0.019101   0.489299  -0.019313  -0.005228  -0.000188   0.000112
     9  H   -0.017394  -0.019313   0.487537  -0.001105   0.000647   0.000046
    10  C    0.009525  -0.005228  -0.001105   4.900879   0.423442   0.387512
    11  H   -0.003618  -0.000188   0.000647   0.423442   0.578959  -0.051869
    12  H    0.000101   0.000112   0.000046   0.387512  -0.051869   0.614525
    13  O    0.000002   0.000791  -0.000008  -0.058679   0.005474   0.001093
    14  C    0.000062  -0.000759   0.000091   0.002211   0.000337  -0.002122
    15  C    0.000000   0.000237  -0.000091   0.004462   0.000142  -0.001873
    16  C   -0.000001  -0.000178   0.000004  -0.000058   0.000116   0.000467
    17  C   -0.000001   0.000014  -0.000001  -0.000415  -0.000005   0.000053
    18  C   -0.000000   0.000008   0.000001  -0.000290   0.000050   0.000047
    19  C    0.000000   0.000002  -0.000000   0.000026   0.000002  -0.000017
    20  F   -0.000010   0.000011   0.000017   0.000036   0.000000  -0.000002
    21  F    0.000000   0.000001  -0.000000   0.001229  -0.000042  -0.000085
    22  F    0.000000  -0.000000   0.000000   0.000000   0.000000  -0.000000
    23  F   -0.000000  -0.000000  -0.000000  -0.000003  -0.000000   0.000000
    24  F   -0.000000  -0.000000   0.000000   0.000000  -0.000000   0.000000
    25  O    0.000002   0.000044  -0.000004   0.311686  -0.040071  -0.050121
    26  C    0.000128  -0.000013  -0.000002  -0.040989  -0.005171  -0.004647
    27  H    0.000017   0.000002  -0.000001  -0.011709  -0.004305   0.015930
    28  H   -0.000001  -0.000001  -0.000000   0.009842   0.000013   0.000365
    29  H   -0.000006  -0.000007   0.000002  -0.009412   0.013435  -0.009815
              13         14         15         16         17         18
     1  H   -0.003153  -0.004263   0.000806   0.000257  -0.000993   0.000009
     2  O   -0.085203  -0.038676   0.035952   0.036391  -0.004756  -0.006114
     3  C    0.195308  -0.143558   0.004708  -0.029072   0.002124   0.001666
     4  N   -0.035883   0.031392  -0.017531   0.006378   0.000102   0.000127
     5  H    0.002689  -0.000434   0.002076  -0.000498   0.000026  -0.000031
     6  C    0.005476  -0.000755   0.000571  -0.000095   0.000103  -0.000013
     7  H    0.000002   0.000062   0.000000  -0.000001  -0.000001  -0.000000
     8  H    0.000791  -0.000759   0.000237  -0.000178   0.000014   0.000008
     9  H   -0.000008   0.000091  -0.000091   0.000004  -0.000001   0.000001
    10  C   -0.058679   0.002211   0.004462  -0.000058  -0.000415  -0.000290
    11  H    0.005474   0.000337   0.000142   0.000116  -0.000005   0.000050
    12  H    0.001093  -0.002122  -0.001873   0.000467   0.000053   0.000047
    13  O    8.079326   0.292113  -0.034004  -0.040185   0.009826   0.010672
    14  C    0.292113   5.533016   0.082473   0.163519   0.031704  -0.001216
    15  C   -0.034004   0.082473   5.344146   0.048403   0.248300  -0.028850
    16  C   -0.040185   0.163519   0.048403   5.206604  -0.011000   0.293629
    17  C    0.009826   0.031704   0.248300  -0.011000   5.013215  -0.043881
    18  C    0.010672  -0.001216  -0.028850   0.293629  -0.043881   5.026255
    19  C    0.000904   0.001293  -0.057838  -0.082268   0.393025   0.382982
    20  F   -0.001310  -0.039443   0.242704   0.005793  -0.030155  -0.000371
    21  F    0.002582  -0.073411   0.004967   0.302186  -0.000932  -0.035108
    22  F   -0.000061   0.009408  -0.055370  -0.001396   0.294743   0.007218
    23  F   -0.000064   0.009662  -0.001091  -0.054574   0.007216   0.293476
    24  F   -0.000001  -0.001164   0.009094   0.008969  -0.046656  -0.046043
    25  O   -0.000049   0.000647   0.000343   0.009297   0.000002   0.001313
    26  C   -0.000269   0.000463   0.000062  -0.000247  -0.000006  -0.000113
    27  H    0.000297  -0.000277  -0.000041  -0.000125   0.000001  -0.000021
    28  H   -0.000005   0.000048  -0.000001  -0.000115   0.000000  -0.000013
    29  H    0.000069   0.000080   0.000005   0.000116  -0.000000   0.000010
              19         20         21         22         23         24
     1  H    0.000005   0.010160  -0.000000  -0.000018  -0.000000   0.000000
     2  O    0.000740  -0.000632  -0.001013  -0.000001   0.000000  -0.000000
     3  C    0.000313  -0.000643   0.000680   0.000032   0.000022  -0.000002
     4  N   -0.000109  -0.001962  -0.000064  -0.000001  -0.000000   0.000000
     5  H    0.000006   0.000159  -0.000002  -0.000000   0.000000   0.000000
     6  C    0.000001  -0.000092   0.000001   0.000000   0.000000  -0.000000
     7  H    0.000000  -0.000010   0.000000   0.000000  -0.000000  -0.000000
     8  H    0.000002   0.000011   0.000001  -0.000000  -0.000000  -0.000000
     9  H   -0.000000   0.000017  -0.000000   0.000000  -0.000000   0.000000
    10  C    0.000026   0.000036   0.001229   0.000000  -0.000003   0.000000
    11  H    0.000002   0.000000  -0.000042   0.000000  -0.000000  -0.000000
    12  H   -0.000017  -0.000002  -0.000085  -0.000000   0.000000   0.000000
    13  O    0.000904  -0.001310   0.002582  -0.000061  -0.000064  -0.000001
    14  C    0.001293  -0.039443  -0.073411   0.009408   0.009662  -0.001164
    15  C   -0.057838   0.242704   0.004967  -0.055370  -0.001091   0.009094
    16  C   -0.082268   0.005793   0.302186  -0.001396  -0.054574   0.008969
    17  C    0.393025  -0.030155  -0.000932   0.294743   0.007216  -0.046656
    18  C    0.382982  -0.000371  -0.035108   0.007218   0.293476  -0.046043
    19  C    4.994102   0.006971   0.007199  -0.046080  -0.046543   0.283810
    20  F    0.006971   8.999506  -0.000031   0.000636   0.000000  -0.000027
    21  F    0.007199  -0.000031   8.962727   0.000000   0.000197  -0.000027
    22  F   -0.046080   0.000636   0.000000   8.965651  -0.000028   0.001147
    23  F   -0.046543   0.000000   0.000197  -0.000028   8.967066   0.001081
    24  F    0.283810  -0.000027  -0.000027   0.001147   0.001081   8.964118
    25  O   -0.000035   0.000000  -0.008331   0.000000  -0.000001   0.000000
    26  C   -0.000001  -0.000000   0.002169   0.000000  -0.000001   0.000000
    27  H   -0.000001   0.000000  -0.000134   0.000000   0.000000  -0.000000
    28  H    0.000000   0.000000   0.000059  -0.000000   0.000000   0.000000
    29  H    0.000000  -0.000000  -0.000015   0.000000  -0.000000   0.000000
              25         26         27         28         29
     1  H   -0.000157   0.000040   0.000008  -0.000001  -0.000003
     2  O   -0.004167  -0.000470  -0.000083   0.000090   0.000008
     3  C   -0.064547   0.002082   0.000262  -0.000123  -0.001299
     4  N    0.001784  -0.000276  -0.000003   0.000015   0.000003
     5  H    0.000009  -0.000031   0.000044  -0.000004  -0.000004
     6  C   -0.000300   0.000108  -0.000025   0.000002   0.000038
     7  H    0.000002   0.000128   0.000017  -0.000001  -0.000006
     8  H    0.000044  -0.000013   0.000002  -0.000001  -0.000007
     9  H   -0.000004  -0.000002  -0.000001  -0.000000   0.000002
    10  C    0.311686  -0.040989  -0.011709   0.009842  -0.009412
    11  H   -0.040071  -0.005171  -0.004305   0.000013   0.013435
    12  H   -0.050121  -0.004647   0.015930   0.000365  -0.009815
    13  O   -0.000049  -0.000269   0.000297  -0.000005   0.000069
    14  C    0.000647   0.000463  -0.000277   0.000048   0.000080
    15  C    0.000343   0.000062  -0.000041  -0.000001   0.000005
    16  C    0.009297  -0.000247  -0.000125  -0.000115   0.000116
    17  C    0.000002  -0.000006   0.000001   0.000000  -0.000000
    18  C    0.001313  -0.000113  -0.000021  -0.000013   0.000010
    19  C   -0.000035  -0.000001  -0.000001   0.000000   0.000000
    20  F    0.000000  -0.000000   0.000000   0.000000  -0.000000
    21  F   -0.008331   0.002169  -0.000134   0.000059  -0.000015
    22  F    0.000000   0.000000   0.000000  -0.000000   0.000000
    23  F   -0.000001  -0.000001   0.000000   0.000000  -0.000000
    24  F    0.000000   0.000000  -0.000000   0.000000   0.000000
    25  O    7.995826   0.258404  -0.046758  -0.030799  -0.041113
    26  C    0.258404   4.790975   0.425054   0.399580   0.414944
    27  H   -0.046758   0.425054   0.572910  -0.024833  -0.053332
    28  H   -0.030799   0.399580  -0.024833   0.526603  -0.022887
    29  H   -0.041113   0.414944  -0.053332  -0.022887   0.585133
 Mulliken charges:
               1
     1  H    0.278658
     2  O   -0.518088
     3  C    0.297362
     4  N   -0.152758
     5  H    0.288232
     6  C   -0.335726
     7  H    0.173967
     8  H    0.166348
     9  H    0.174847
    10  C   -0.141256
    11  H    0.128076
    12  H    0.115198
    13  O   -0.347750
    14  C    0.147558
    15  C    0.167239
    16  C    0.137685
    17  C    0.138347
    18  C    0.144601
    19  C    0.161512
    20  F   -0.191315
    21  F   -0.164802
    22  F   -0.175881
    23  F   -0.176416
    24  F   -0.174300
    25  O   -0.292904
    26  C   -0.241775
    27  H    0.127123
    28  H    0.142165
    29  H    0.124053
 Sum of Mulliken charges =  -0.00000
 Mulliken charges with hydrogens summed into heavy atoms:
               1
     2  O   -0.518088
     3  C    0.297362
     4  N    0.414132
     6  C    0.179437
    10  C    0.102019
    13  O   -0.347750
    14  C    0.147558
    15  C    0.167239
    16  C    0.137685
    17  C    0.138347
    18  C    0.144601
    19  C    0.161512
    20  F   -0.191315
    21  F   -0.164802
    22  F   -0.175881
    23  F   -0.176416
    24  F   -0.174300
    25  O   -0.292904
    26  C    0.151566
 Electronic spatial extent (au):  <R**2>=           5305.6445
 Charge=             -0.0000 electrons
 Dipole moment (field-independent basis, Debye):
    X=              8.1249    Y=             -6.3200    Z=             -3.6257  Tot=             10.9134
 Quadrupole moment (field-independent basis, Debye-Ang):
   XX=            -85.2789   YY=            -94.3308   ZZ=           -109.9652
   XY=            -14.3581   XZ=             -4.9241   YZ=             -3.2242
 Traceless Quadrupole moment (field-independent basis, Debye-Ang):
   XX=             11.2461   YY=              2.1942   ZZ=            -13.4403
   XY=            -14.3581   XZ=             -4.9241   YZ=             -3.2242
 Octapole moment (field-independent basis, Debye-Ang**2):
  XXX=            117.9315  YYY=            -38.8098  ZZZ=            -10.5281  XYY=             57.2768
  XXY=            -31.1034  XXZ=            -16.2688  XZZ=            -15.8988  YZZ=             -1.8691
  YYZ=             -1.8952  XYZ=             -3.9884
 Hexadecapole moment (field-independent basis, Debye-Ang**3):
 XXXX=          -3882.1686 YYYY=          -1631.4177 ZZZZ=           -342.9662 XXXY=            -80.5021
 XXXZ=             -7.1453 YYYX=            -78.4819 YYYZ=            -10.8582 ZZZX=            -32.3107
 ZZZY=             26.0305 XXYY=           -844.0280 XXZZ=           -720.6377 YYZZ=           -339.0465
 XXYZ=            -31.7958 YYXZ=            -10.1901 ZZXY=            -11.8812
 N-N= 1.625077530049D+03 E-N=-6.001842065738D+03  KE= 1.161504293750D+03
 No NMR shielding tensors so no spin-rotation constants.
 Leave Link  601 at Wed Aug 28 23:34:41 2024, MaxMem=  8589934592 cpu:               4.9 elap:               0.3
 (Enter /share/apps/g16.b01_avx2/g16/l701.exe)
 ... and contract with generalized density number  0.
 Compute integral first derivatives.
 R6Disp: Adding Grimme-D3 dispersion energy 1st derivatives to the gradient.
   1 Symmetry operations used in ECPInt.
 ECPInt:  NShTT=   31125 NPrTT=   97468 LenC2=   27062 LenP2D=   60045.
 LDataN:  DoStor=T MaxTD1= 7 Len=  274
 D1PCM: PCM CHGder 1st derivatives, ID1Alg=3 FixD1E=F DoIter=F DoCFld=F I1PDM=0.
 GePol: Maximum number of non-zero 1st derivatives   =     224
 Leave Link  701 at Wed Aug 28 23:34:42 2024, MaxMem=  8589934592 cpu:              31.9 elap:               1.3
 (Enter /share/apps/g16.b01_avx2/g16/l702.exe)
 L702 exits ... SP integral derivatives will be done elsewhere.
 Leave Link  702 at Wed Aug 28 23:34:42 2024, MaxMem=  8589934592 cpu:               0.3 elap:               0.0
 (Enter /share/apps/g16.b01_avx2/g16/l703.exe)
 Integral derivatives from FoFJK, PRISM(SPDF).
 Compute integral first derivatives, UseDBF=F ICtDFT=           0.
 Calling FoFJK, ICntrl=      2127 FMM=F ISym2X=0 I1Cent= 0 IOpClX= 0 NMat=1 NMatS=1 NMatT=0.
 FoFJK:  IHMeth= 1 ICntrl=    2127 DoSepK=F KAlg= 0 I1Cent=           0 FoldK=F
 IRaf=         0 NMat=       1 IRICut=       1 DoRegI=T DoRafI=F ISym2E= 0 IDoP0=0 IntGTp=1.
 FoFCou: FMM=F IPFlag=           0 FMFlag=      100000 FMFlg1=         800
         NFxFlg=           0 DoJE=F BraDBF=F KetDBF=F FulRan=T
         wScrn=  0.000000 ICntrl=      2127 IOpCl=  0 I1Cent=           0 NGrid=           0
         NMat0=    1 NMatS0=      1 NMatT0=    0 NMatD0=    1 NMtDS0=    0 NMtDT0=    0
[...]
 1964,-0.00372756,0.00393919,-0.00141548,-0.00436423,0.00499099,0.00080
 964,0.00426080,-0.00317544,0.00093341,0.00116921,0.00198614,0.00106056
 ,0.23194897,-0.00052455,0.00015629,-0.00012292,0.00087282,0.00032346,-
 0.00095717,-0.00255335,-0.00010219,0.00206712,0.00061448,-0.00025406,-
 0.00014935,-0.00003946,0.00005853,-0.00008815,-0.00010977,-0.00009482,
 0.00026189,0.00004042,0.00001008,-0.00003224,-0.00002322,0.00003135,0.
 00000064,0.00008143,-0.00003487,-0.00005917,0.00022168,-0.00035640,-0.
 00021155,0.00013100,0.00016622,0.00001538,-0.00001409,0.00001704,0.000
 01660,0.00431511,0.00026513,-0.00021326,-0.00440853,-0.00040556,-0.003
 85975,-0.00217210,0.00282613,0.00227710,0.00981494,-0.01119665,-0.0069
 3509,-0.00464105,0.00301681,-0.00166535,0.14163380,-0.21609387,-0.0505
 7115,0.04458197,-0.03729387,-0.01003754,0.00504497,-0.00513956,-0.0013
 8394,-0.00149310,0.00798460,0.00633676,0.00095324,-0.00462502,-0.00240
 619,-0.18809125,0.25699641,-0.00012905,0.00000563,-0.00003980,0.000373
 22,0.00016102,-0.00005625,-0.00046641,0.00005450,-0.00007358,0.0000318
 6,-0.00003380,0.00004979,0.00000504,0.00000213,-0.00001454,-0.00002505
 ,0.00000875,0.00003268,0.00000745,0.00000113,-0.00000608,-0.00000568,0
 .00000733,0.00000205,0.00000678,-0.00000486,-0.00000282,0.00001819,-0.
 00006978,-0.00001534,0.00001560,0.00001873,0.00000423,0.00000207,0.000
 00891,0.00001281,0.00015298,0.00049581,0.00049049,-0.00275709,-0.00471
 834,0.00191078,0.00053349,0.00228740,-0.00130442,-0.00702357,0.0045209
 2,0.00824154,-0.00489947,-0.00105918,0.00233174,0.02491397,-0.05067336
 ,-0.05310436,0.01904177,-0.02144406,0.00249424,0.00109932,-0.00154128,
 0.00047523,0.00186572,0.00559356,-0.00219864,0.00058621,-0.00220242,-0
 .00010134,-0.03506848,0.06455099,0.04391463,0.00060646,-0.00030848,0.0
 0009538,-0.00097370,-0.00024878,0.00241201,0.00545260,-0.00083953,-0.0
 0517856,-0.00093180,0.00039429,0.00024064,0.00011472,-0.00009763,0.000
 14888,0.00018678,0.00018165,-0.00043321,-0.00005736,-0.00002356,0.0000
 4855,0.00003511,-0.00006403,0.00000116,-0.00014531,0.00006029,0.000099
 19,-0.00067814,0.00079268,0.00063455,-0.00030722,-0.00039466,-0.000075
 93,0.00004302,-0.00000951,-0.00003516,-0.01206133,0.00002972,-0.001250
 96,0.00589196,-0.00020630,0.00265219,0.00458480,0.00080944,-0.00036799
 ,0.00123343,0.00375980,0.00168648,-0.05122273,-0.01143015,-0.02183688,
 -0.03642050,0.00113566,-0.01143163,-0.32843001,-0.02489764,-0.09350516
 ,-0.00493987,0.00286794,-0.00034434,-0.00188959,-0.00337252,-0.0024399
 6,0.00697317,0.00274579,0.00482916,0.00924664,-0.00439036,0.00169874,0
 .40389066,-0.00002989,-0.00005306,-0.00002927,-0.00021373,0.00001694,0
 .00018221,0.00061247,-0.00009699,-0.00036741,-0.00010084,0.00004003,0.
 00005334,0.00002422,-0.00000601,0.00000918,0.00001326,0.00003210,-0.00
 003546,-0.00000246,-0.00000368,0.00000136,0.00000293,-0.00000703,0.000
 00013,-0.00001659,0.00000529,0.00001097,-0.00003436,0.00005483,0.00004
 413,-0.00002966,-0.00003307,-0.00000692,0.00000789,0.00000173,-0.00000
 371,-0.00112726,0.00033202,-0.00045447,-0.00030602,0.00174314,0.002225
 65,-0.00160044,-0.00569078,-0.00527703,0.00602289,-0.00444634,-0.00254
 593,0.02928109,0.00777658,0.00797851,-0.03935706,0.00134229,-0.0139760
 2,-0.02482232,-0.06949004,-0.02471830,0.00199246,0.00032520,0.00032984
 ,-0.00236864,-0.00082886,-0.00147076,-0.00013960,0.00459940,0.00494110
 ,-0.00171807,0.00349569,0.00398583,0.03395851,0.06092895,0.00011616,-0
 .00012017,0.00001002,-0.00010652,-0.00003455,0.00094339,0.00177495,-0.
 00041608,-0.00217037,-0.00028792,0.00017234,0.00006153,0.00003164,-0.0
 0002778,0.00005095,0.00005756,0.00006704,-0.00014104,-0.00001497,-0.00
 000781,0.00001389,0.00001286,-0.00002212,0.00000038,-0.00004801,0.0000
 1886,0.00003262,-0.00029641,0.00029754,0.00027677,-0.00011245,-0.00015
 193,-0.00003034,0.00001440,-0.00000215,-0.00001266,-0.00454426,-0.0004
 2370,0.00064034,0.00259580,0.00249536,-0.00095210,-0.00107491,-0.00458
 108,0.00126431,0.00281230,-0.00310871,0.00349884,-0.00184089,-0.003003
 68,0.00594078,-0.03208368,-0.00306003,-0.00232793,-0.09338886,-0.02475
 156,-0.07180613,-0.00051302,0.00064663,0.00098843,-0.00203322,-0.00168
 575,-0.00062622,0.00330973,0.00554966,-0.00189009,0.00337838,0.0031892
 8,-0.00304051,0.12231008,0.02910886,0.06925770,0.00075780,-0.00090052,
 0.00015984,0.00105498,-0.00137140,0.00048254,0.01031671,-0.01068605,0.
 00632733,-0.00138129,-0.00711372,-0.00081885,-0.00029735,-0.00021465,-
 0.00024428,-0.00093699,-0.00020716,0.00046526,0.00061965,-0.00005649,-
 0.00009875,0.00002593,0.00004041,-0.00002561,0.00050555,0.00021583,-0.
 00012738,-0.12859719,0.05059562,-0.03192408,-0.01949421,0.03636728,-0.
 00819439,-0.00393556,0.01282017,-0.00723912,0.00079989,-0.00174809,-0.
 00075040,0.00128033,0.00063469,0.00013249,-0.00008290,0.00020066,0.000
 06815,0.00066771,0.00122527,0.00077069,0.00008232,0.00022821,0.0001356
 8,0.00022894,-0.00028668,-0.00013981,0.00025662,0.00001988,0.00008672,
 0.00000723,-0.00018382,-0.00007608,-0.00192237,-0.00120794,-0.00001958
 ,-0.00013735,-0.00030877,-0.00018721,-0.00024449,0.00021676,0.00003658
 ,-0.00033224,-0.00005962,-0.00011762,0.28697693,0.00191571,-0.00102206
 ,0.00024869,-0.00211687,0.00155929,-0.00082584,0.02011243,-0.03547975,
 0.00729618,-0.00398416,-0.00653980,-0.00263941,-0.00025940,0.00189374,
 -0.00064329,-0.00056760,-0.00039238,0.00128967,-0.00045127,0.00027254,
 -0.00008410,0.00012672,0.00011104,-0.00003088,0.00034999,-0.00037165,-
 0.00035479,0.08844028,-0.19621877,0.03769575,0.01668202,-0.01795467,-0
 .00034645,0.01132620,-0.02147115,0.01154776,-0.00289135,-0.00041415,-0
 .00078972,0.00196995,0.00066525,0.00116039,-0.00012652,0.00024798,-0.0
 0016596,-0.00032230,-0.00047183,-0.00022671,0.00017010,0.00043628,0.00
 026846,0.00046327,-0.00021350,-0.00003951,0.00043126,-0.00003321,0.000
 11921,-0.00015509,-0.00029250,-0.00002813,-0.00013685,0.00026117,0.000
 11729,-0.00020750,-0.00040514,-0.00026345,-0.00043197,0.00035333,0.000
 06092,-0.00065294,-0.00006357,-0.00021591,0.00140534,0.50713970,0.0004
 8617,-0.00051287,0.00035601,0.00049041,-0.00188662,0.00245008,0.007580
 90,-0.00760015,0.00098828,-0.00083604,-0.00352606,-0.00008901,0.000036
 54,-0.00079431,-0.00011485,-0.00021989,0.00001862,0.00033746,-0.000128
 04,0.00010191,-0.00004142,-0.00002629,0.00003303,0.00002333,0.00007453
 ,-0.00005419,-0.00004008,-0.02809463,0.01736984,-0.07922102,0.00419904
 ,-0.01226181,0.00912170,-0.02100759,0.03417864,-0.00367395,-0.00042202
 ,0.00074178,0.00020066,0.00002595,-0.00012306,0.00019752,0.00006787,-0
 .00000157,-0.00005376,-0.00011107,-0.00045828,-0.00031408,0.00003598,0
 .00005532,0.00003808,0.00006487,0.00002337,0.00004127,0.00003916,-0.00
 000339,0.00000630,-0.00009495,-0.00000399,0.00001980,0.00040201,0.0004
 4130,-0.00002973,-0.00001594,-0.00002313,-0.00001940,-0.00004466,0.000
 03199,0.00000652,-0.00006066,0.00000269,-0.00001769,0.09861846,0.02837
 936,0.15175706,-0.00046117,0.00036510,-0.00005591,0.00133668,0.0007706
 1,0.00148373,-0.00553681,-0.00022259,-0.00220903,0.00070132,0.00270364
 ,0.00042792,0.00007985,-0.00051033,0.00024531,0.00032734,0.00003129,-0
 .00047777,0.00009769,-0.00008858,-0.00000007,-0.00000772,-0.00003411,0
 .00001917,-0.00011778,0.00008311,0.00010651,0.00737687,0.01359312,0.00
 783395,0.00106029,0.00549231,-0.00035646,-0.00036918,0.00297909,-0.000
 77210,0.00183841,0.00032082,-0.00007224,-0.00074540,0.00004964,-0.0005
 2041,0.00012509,-0.00012742,0.00012401,0.00017369,0.00014227,0.0000744
 7,-0.00009083,-0.00015231,-0.00010335,-0.00015986,0.00011164,0.0000245
 0,-0.00015847,-0.00000338,-0.00005194,0.00003245,0.00013886,-0.0000134
 5,0.00021587,0.00000724,-0.00008036,0.00008476,0.00015744,0.00010535,0
 .00015435,-0.00012782,-0.00002503,0.00025125,0.00002452,0.00008762,-0.
 13057216,-0.08441587,-0.04245624,0.55015013,-0.00004929,-0.00012267,0.
 00006657,0.00056182,0.00245541,0.00096968,0.00116495,-0.00611767,0.000
 99147,-0.00033653,0.00021078,0.00000359,-0.00002958,-0.00053186,0.0001
 1605,-0.00000392,0.00005122,-0.00028190,0.00022411,-0.00006917,-0.0000
 1688,0.00002112,-0.00005639,-0.00001090,0.00001867,0.00015164,0.000061
 31,-0.01573856,-0.05431468,-0.01158746,-0.00280168,0.00481849,-0.00016
 082,-0.00212923,0.00480659,-0.00198393,0.00174581,0.00129944,-0.000016
 46,-0.00134724,-0.00014173,-0.00052697,0.00019799,-0.00020625,0.000116
 95,0.00000666,-0.00013320,0.00000422,-0.00009764,-0.00020513,-0.000130
 92,-0.00024931,0.00018249,0.00000181,-0.00022399,-0.00000114,-0.000056
 37,-0.00001903,0.00021408,-0.00000756,0.00064843,0.00018699,-0.0001610
 0,0.00011642,0.00022706,0.00014448,0.00022000,-0.00018322,-0.00002952,
 0.00034109,0.00004057,0.00011478,-0.04731349,-0.17390363,-0.03239504,-
 0.06553435,0.54333802,-0.00027337,0.00021299,-0.00000992,0.00073523,-0
 .00020040,0.00129497,-0.00265554,-0.00086006,-0.00266715,0.00022569,0.
 00160712,0.00040314,0.00008507,-0.00028205,0.00021399,0.00005160,0.000
 14046,-0.00025424,0.00010919,-0.00005621,0.00001796,-0.00001871,-0.000
 01709,0.00001065,-0.00005744,0.00009545,0.00008657,0.00556289,0.004591
 38,-0.00243807,-0.00208367,-0.00013487,0.00075227,0.00019219,0.0049247
 5,0.00238887,0.00090078,0.00078692,0.00018539,-0.00068658,-0.00010462,
 -0.00038711,0.00012625,-0.00010897,0.00007468,0.00001972,-0.00002610,0
 .00005304,-0.00006039,-0.00011052,-0.00006977,-0.00012934,0.00008863,0
 .00000109,-0.00011780,-0.00000279,-0.00003675,-0.00001066,0.00010564,0
 .00000111,0.00026462,0.00002698,-0.00011677,0.00006383,0.00012066,0.00
 007715,0.00012220,-0.00009799,-0.00001487,0.00018507,0.00002037,0.0000
 6345,-0.03959901,-0.05218583,-0.08463973,-0.00644214,-0.03518701,0.549
 90001,0.00003387,-0.00000737,-0.00000350,-0.00004175,-0.00038028,-0.00
 002613,0.00016653,0.00049229,-0.00006480,-0.00002561,-0.00016103,-0.00
 002607,0.00000258,0.00006593,-0.00001518,-0.00002705,-0.00000995,0.000
 04749,-0.00001436,0.00000878,0.00000236,-0.00000381,0.00000746,0.00000
 150,0.00001050,-0.00001233,-0.00000981,-0.00080772,0.00278843,0.000076
 58,-0.00000349,-0.00049688,0.00021910,0.00028823,-0.00048796,0.0006113
 3,-0.00024813,-0.00008251,0.00004442,0.00015638,0.00001697,0.00007173,
 -0.00001473,0.00002329,-0.00001750,-0.00001426,-0.00002504,-0.00001860
 ,0.00001276,0.00002402,0.00001590,0.00002800,-0.00001458,-0.00000220,0
 .00002714,-0.00000081,0.00000724,-0.00000435,-0.00002402,0.00000286,-0
 .00002311,0.00001660,0.00002831,-0.00001327,-0.00002463,-0.00001606,-0
 .00002554,0.00002218,0.00000409,-0.00004073,-0.00000394,-0.00001319,-0
 .00498514,-0.00892295,-0.02429375,-0.05221351,0.00339623,-0.02273892,0
 .05469459,0.00001174,0.00000559,0.00000613,0.00013464,-0.00050110,0.00
 021356,-0.00021159,0.00025739,-0.00028364,-0.00000414,-0.00007098,0.00
 001890,0.00001411,-0.00002638,0.00000560,-0.00000385,-0.00000131,0.000
 02063,-0.00000831,0.00000670,0.00000160,-0.00000875,0.00000502,0.00000
 539,0.00000119,-0.00000426,-0.00000027,-0.00245443,0.00531461,-0.00506
 363,0.00025587,-0.00050620,0.00036168,0.00032674,0.00043477,0.00176520
 ,-0.00008323,-0.00003051,0.00004758,0.00007963,0.00001542,0.00003501,0
 .00000332,0.00000983,-0.00000726,0.00000718,0.00000777,-0.00000006,0.0
 0000621,0.00001343,0.00000886,0.00001444,-0.00001048,-0.00000077,0.000
 01343,0.00000100,0.00000281,-0.00000569,-0.00001269,0.00000277,-0.0000
 3180,-0.00001167,0.00000974,-0.00000645,-0.00001351,-0.00000832,-0.000
 01277,0.00001086,0.00000201,-0.00001971,-0.00000238,-0.00000626,-0.010
 35942,-0.01089500,-0.03323006,0.00501033,-0.05209054,0.02501604,0.0043
 7043,0.05626060,0.00006170,-0.00002980,-0.00000159,-0.00000349,-0.0001
 7907,0.00001001,0.00042560,0.00032893,0.00042116,-0.00009292,-0.000292
 02,-0.00009107,-0.00000804,0.00009972,-0.00003548,-0.00002703,-0.00001
 778,0.00006810,-0.00002462,0.00001638,-0.00000170,0.00000015,0.0000099
 9,0.00000097,0.00001404,-0.00001944,-0.00001591,-0.00115450,0.00270507
 ,0.00166916,0.00046504,-0.00007902,-0.00043918,0.00050233,-0.00174112,
 -0.00014108,-0.00030841,-0.00019920,-0.00001083,0.00022300,0.00002384,
 0.00010495,-0.00003241,0.00003292,-0.00002222,-0.00000822,0.00000486,-
 0.00001287,0.00001764,0.00003463,0.00002282,0.00004117,-0.00003006,0.0
 0000066,0.00003694,0.00000130,0.00000933,0.00000026,-0.00003212,0.0000
 0049,-0.00008355,-0.00001412,0.00002724,-0.00001923,-0.00003707,-0.000
 02359,-0.00003668,0.00003042,0.00000468,-0.00005731,-0.00000631,-0.000
 01931,-0.00950020,-0.01237832,-0.00992857,-0.02499841,0.02142662,-0.29
 324565,0.03520296,-0.01330463,0.32089282,0.00007309,-0.00007904,0.0000
 0955,-0.00009440,0.00013438,-0.00002789,0.00089579,-0.00054706,0.00025
 023,-0.00018211,-0.00042446,-0.00008229,-0.00001727,0.00004284,-0.0000
 3005,-0.00005327,0.00000180,0.00004223,0.00000109,0.00000958,-0.000001
 23,0.00000514,-0.00000158,-0.00000326,0.00001814,0.00000025,-0.0000077
 8,-0.00100762,-0.00312554,-0.00097439,0.00029243,-0.00031490,-0.000211
 60,-0.00010429,-0.00003672,0.00011451,0.00004288,0.00006986,-0.0000372
 7,0.00001525,0.00001604,0.00000649,0.00000234,-0.00000755,-0.00000285,
 -0.00001415,-0.00002469,-0.00000381,0.00000351,0.00000334,0.00000171,0
 .00000222,0.00000261,-0.00000243,0.00000272,0.00000103,0.00000110,-0.0
 0000878,0.00000349,-0.00000156,0.00002221,0.00002799,-0.00000483,-0.00
 000152,-0.00000220,-0.00000106,-0.00000355,0.00000363,0.00000063,-0.00
 000455,-0.00000024,-0.00000063,0.01097478,-0.02179098,0.00429619,-0.13
 236990,0.12698851,-0.03638951,-0.00090335,0.00152874,0.00063304,0.1350
 5762,0.00016863,-0.00012014,0.00002234,-0.00044206,-0.00020699,-0.0005
 9212,0.00216712,0.00035896,0.00108724,-0.00026731,-0.00090541,-0.00015
 207,-0.00002556,0.00011937,-0.00008361,-0.00009992,-0.00003793,0.00014
 927,-0.00002131,0.00002788,-0.00000656,0.00000418,0.00001312,-0.000004
 92,0.00004769,-0.00002342,-0.00003824,-0.00520140,-0.00173624,-0.00284
 726,0.00024653,0.00000861,-0.00012577,0.00003591,0.00000835,0.00023579
 ,-0.00061416,-0.00017598,0.00000337,0.00030273,0.00000200,0.00018732,-
 0.00004237,0.00004347,-0.00004322,-0.00004443,-0.00005890,-0.00004747,
 0.00003134,0.00005140,0.00003458,0.00005803,-0.00003634,-0.00000466,0.
 00005424,-0.00000004,0.00001769,-0.00001260,-0.00004545,0.00000485,-0.
 00003124,0.00004372,0.00004121,-0.00002901,-0.00005202,-0.00003496,-0.
 00005498,0.00004679,0.00000806,-0.00008716,-0.00000793,-0.00002976,0.0
 1096663,-0.03274847,0.00366627,0.11538842,-0.21969065,0.05100236,0.001
 43332,0.00027678,0.00086724,-0.12394824,0.25224465,0.00004697,-0.00004
 892,0.00000490,0.00003020,0.00011115,0.00001884,0.00036313,-0.00034680
 ,0.00063425,-0.00010151,-0.00025488,-0.00009601,-0.00001316,0.00003082
 ,-0.00002411,-0.00002271,-0.00001325,0.00003215,-0.00000299,0.00000761
 ,-0.00000079,0.00000264,0.00000002,-0.00000151,0.00001201,-0.00000337,
 -0.00000906,-0.00108365,-0.00174119,-0.00034581,-0.00016898,0.00020595
 ,-0.00003082,0.00010128,-0.00040279,0.00037901,-0.00012306,-0.00001466
 ,-0.00001827,0.00001919,-0.00000984,0.00003152,-0.00000949,0.00000681,
 -0.00000616,-0.00000825,-0.00000602,-0.00000614,0.00000523,0.00000725,
 0.00000444,0.00000650,-0.00000453,-0.00000051,0.00000694,0.00000072,0.
 00000291,-0.00000080,-0.00000592,-0.00000023,-0.00000309,0.00000018,0.
 00000204,-0.00000410,-0.00000746,-0.00000478,-0.00000654,0.00000500,0.
 00000029,-0.00001187,-0.00000111,-0.00000452,0.00633420,-0.01368506,0.
 00283653,-0.03709679,0.05714489,-0.06555107,-0.01701170,0.02470038,-0.
 00536308,0.04023869,-0.05323860,0.06339192,0.00006961,-0.00002971,0.00
 000307,-0.00017511,-0.00035976,-0.00022536,0.00072577,0.00068635,0.000
 06602,-0.00007023,-0.00033341,-0.00006815,-0.00000743,0.00009285,-0.00
 004460,-0.00002805,-0.00002721,0.00008689,-0.00003636,0.00001558,0.,-0
 .00000190,0.00001182,0.00000121,0.00001409,-0.00002960,-0.00002146,0.0
 0050064,0.00359083,-0.00165634,0.00051119,-0.00179306,0.00024067,0.000
 02921,-0.00038388,0.00039532,-0.00022259,-0.00019516,-0.00006299,0.000
 29266,0.00007419,0.00011434,-0.00003080,0.00004580,-0.00002122,0.00001
 152,0.00004874,0.00000698,0.00001929,0.00004713,0.00003318,0.00005488,
 -0.00003749,0.00000136,0.00005216,0.00000070,0.00001066,0.00000024,-0.
 00004593,-0.00000227,-0.00015928,-0.00005676,0.00003089,-0.00002617,-0
 .00005326,-0.00003382,-0.00004993,0.00004021,0.00000610,-0.00007555,-0
 .00000952,-0.00002492,-0.02163617,-0.01595967,0.00139368,-0.24120323,0
 .00022203,0.10261875,0.00398934,0.00143215,-0.00126886,-0.01264444,0.0
 0001699,0.00850171,0.27009664,0.00002427,-0.00000515,-0.00000575,0.000
 07990,-0.00014599,-0.00000293,-0.00013598,0.00033835,-0.00006913,-0.00
 002452,-0.00017106,-0.00002883,-0.00000764,0.00003100,-0.00001108,-0.0
 0002085,-0.00001367,0.00001994,0.00000626,0.00000779,-0.00000310,0.000
 00156,0.00000539,0.00000124,0.00001487,-0.00000193,-0.00000476,-0.0053
 8356,0.00495743,0.00126304,0.00150009,0.00046974,-0.00058086,0.0003824
 3,-0.00048572,0.00003697,0.00010353,-0.00025953,-0.00005392,0.00021149
 ,0.00006063,0.00001908,-0.00002187,0.00001696,-0.00000749,0.00004066,0
 .00006468,0.00001747,0.00001050,0.00001927,0.00001403,0.00002392,-0.00
 002754,0.00000323,0.00002379,0.00000323,0.00000535,0.00000293,-0.00001
 798,-0.00000407,-0.00013491,-0.00005108,0.00002677,-0.00001312,-0.0000
 2634,-0.00001592,-0.00002471,0.00002136,0.00000298,-0.00003392,-0.0000
 0502,-0.00001131,-0.03291893,-0.01404911,0.00783039,0.00384731,-0.0502
 1485,0.00063477,-0.00201165,0.00155727,0.00277816,0.02146912,0.0026007
 9,-0.01243638,0.01298903,0.05532110,-0.00000101,0.00000826,-0.00000377
 ,0.00003438,-0.00004545,-0.00006438,-0.00022876,0.00025202,0.00004611,
 0.00002261,0.00000461,-0.00000128,0.00000235,-0.00000036,-0.00000465,0
 .00000999,-0.00001059,0.00000115,-0.00000518,0.00000581,-0.00000296,-0
 .00000076,0.00000063,0.00000076,-0.00000168,-0.00000383,0.00000079,-0.
 00135224,0.00120053,0.00072306,0.00060962,0.00076868,-0.00040844,0.000
 25334,-0.00033988,-0.00047917,-0.00005273,-0.00014444,0.00000142,0.000
 07420,0.00000544,0.00002302,-0.00001200,0.00000760,-0.00000584,0.00000
 983,0.00001270,-0.00000458,0.00000447,0.00000695,0.00000376,0.00000944
 ,-0.00001114,0.00000230,0.00000728,0.00000109,0.00000216,0.00000278,-0
 .00000721,0.00000030,-0.00003267,-0.00000418,0.00001323,-0.00000449,-0
 .00000814,-0.00000497,-0.00000873,0.00000765,0.00000086,-0.00001246,-0
 .00000147,-0.00000450,-0.01455558,-0.00328033,0.00980270,0.10519915,0.
 00139031,-0.10609324,0.02792156,-0.00031899,-0.01388026,-0.00781191,-0
 .00007838,0.00412406,-0.11008082,0.00058210,0.10621239\\-0.00000049,0.
 00000337,0.00000011,0.00000832,0.00000344,0.00003556,0.00000465,0.0000
 0212,-0.00005813,0.00000835,-0.00000680,0.00000743,-0.00000537,-0.0000
 0190,-0.00000302,-0.00000819,0.00000157,0.00000642,0.00000111,0.000000
 66,0.00000080,0.00000375,0.00000083,0.00000164,0.00000134,-0.00000090,
 -0.00000069,-0.00000614,0.00001260,0.00000603,0.00000859,-0.00000012,0
 .00000477,0.00000011,-0.00000611,0.00000508,-0.00001660,0.00000364,0.0
 0001471,0.00000980,-0.00000265,0.00000496,-0.00002583,0.00000133,-0.00
 000456,-0.00000812,-0.00000351,-0.00000962,0.00000855,-0.00000281,-0.0
 0000641,0.00000227,-0.00000563,-0.00000631,-0.00000963,0.00000744,-0.0
 0000563,0.00001206,-0.00000242,-0.00000854,0.00000291,0.00000556,0.000
 00344,0.00000137,0.00000361,-0.00000640,-0.00000208,0.00000379,-0.0000
 0408,0.00000727,0.00000186,-0.00000629,0.00000640,-0.00000903,0.000009
 54,-0.00000429,-0.00000311,0.00000239,-0.00000185,-0.00000205,0.000000
 09,0.00000501,-0.00000367,0.00000736,-0.00000328,-0.00000112,0.0000093
 7\\\@


 THE REAL VOYAGE OF DISCOVERY CONSISTS NOT IN SEEKING NEW LANDSCAPES 
 BUT IN HAVING NEW EYES.
                                                    -- MARCEL PROUST
 Job cpu time:       0 days  9 hours 47 minutes 46.5 seconds.
 Elapsed time:       0 days  0 hours 24 minutes 31.3 seconds.
 File lengths (MBytes):  RWF=   1224 Int=      0 D2E=      0 Chk=     44 Scr=      1
 Normal termination of Gaussian 16 at Thu Aug 29 01:33:13 2024.
