 Entering Gaussian System, Link 0=g16
 Input=input.com
 Output=input.log
 Initial command:
 /share/apps/g16.b01_avx2/g16/l1.exe "/scratch/Gau-2017478.inp" -scrdir="/scratch/"
 Entering Link 1 = /share/apps/g16.b01_avx2/g16/l1.exe PID=   2017480.
  
 Copyright (c) 1988-2017, Gaussian, Inc.  All Rights Reserved.
  
 This is part of the Gaussian(R) 16 program.  It is based on
 the Gaussian(R) 09 system (copyright 2009, Gaussian, Inc.),
 the Gaussian(R) 03 system (copyright 2003, Gaussian, Inc.),
 the Gaussian(R) 98 system (copyright 1998, Gaussian, Inc.),
 the Gaussian(R) 94 system (copyright 1995, Gaussian, Inc.),
 the Gaussian 92(TM) system (copyright 1992, Gaussian, Inc.),
 the Gaussian 90(TM) system (copyright 1990, Gaussian, Inc.),
 the Gaussian 88(TM) system (copyright 1988, Gaussian, Inc.),
 the Gaussian 86(TM) system (copyright 1986, Carnegie Mellon
 University), and the Gaussian 82(TM) system (copyright 1983,
 Carnegie Mellon University). Gaussian is a federally registered
 trademark of Gaussian, Inc.
  
 This software contains proprietary and confidential information,
 including trade secrets, belonging to Gaussian, Inc.
  
 This software is provided under written license and may be
 used, copied, transmitted, or stored only in accord with that
 written license.
  
 The following legend is applicable only to US Government
 contracts under FAR:
  
                    RESTRICTED RIGHTS LEGEND
  
 Use, reproduction and disclosure by the US Government is
 subject to restrictions as set forth in subparagraphs (a)
 and (c) of the Commercial Computer Software - Restricted
 Rights clause in FAR 52.227-19.
  
 Gaussian, Inc.
 340 Quinnipiac St., Bldg. 40, Wallingford CT 06492
  
  
 ---------------------------------------------------------------
 Warning -- This program may not be used in any manner that
 competes with the business of Gaussian, Inc. or will provide
 assistance to any competitor of Gaussian, Inc.  The licensee
 of this program is prohibited from giving any competitor of
 Gaussian, Inc. access to this program.  By using this program,
 the user acknowledges that Gaussian, Inc. is engaged in the
 business of creating and licensing software in the field of
 computational chemistry and represents and warrants to the
 licensee that it is not a competitor of Gaussian, Inc. and that
 it will not use this program in any manner prohibited above.
 ---------------------------------------------------------------
  

 Cite this work as:
 Gaussian 16, Revision B.01,
 M. J. Frisch, G. W. Trucks, H. B. Schlegel, G. E. Scuseria, 
 M. A. Robb, J. R. Cheeseman, G. Scalmani, V. Barone, 
 G. A. Petersson, H. Nakatsuji, X. Li, M. Caricato, A. V. Marenich, 
 J. Bloino, B. G. Janesko, R. Gomperts, B. Mennucci, H. P. Hratchian, 
 J. V. Ortiz, A. F. Izmaylov, J. L. Sonnenberg, D. Williams-Young, 
 F. Ding, F. Lipparini, F. Egidi, J. Goings, B. Peng, A. Petrone, 
 T. Henderson, D. Ranasinghe, V. G. Zakrzewski, J. Gao, N. Rega, 
 G. Zheng, W. Liang, M. Hada, M. Ehara, K. Toyota, R. Fukuda, 
 J. Hasegawa, M. Ishida, T. Nakajima, Y. Honda, O. Kitao, H. Nakai, 
 T. Vreven, K. Throssell, J. A. Montgomery, Jr., J. E. Peralta, 
 F. Ogliaro, M. J. Bearpark, J. J. Heyd, E. N. Brothers, K. N. Kudin, 
 V. N. Staroverov, T. A. Keith, R. Kobayashi, J. Normand, 
 K. Raghavachari, A. P. Rendell, J. C. Burant, S. S. Iyengar, 
 J. Tomasi, M. Cossi, J. M. Millam, M. Klene, C. Adamo, R. Cammi, 
 J. W. Ochterski, R. L. Martin, K. Morokuma, O. Farkas, 
 J. B. Foresman, and D. J. Fox, Gaussian, Inc., Wallingford CT, 2016.
 
 ******************************************
 Gaussian 16:  ES64L-G16RevB.01 20-Dec-2017
                29-Aug-2024 
 ******************************************
 %nproc=24
 Will use up to   24 processors via shared memory.
 %mem=64GB
 ----------------------------------------------------------------------
 #P PBE1PBE/def2TZVP opt=(calcfc, ts, noeigentest) freq EmpiricalDisper
 sion=GD3 Int=(grid=99590) scrf=(iefpcm, solvent=water)
 ----------------------------------------------------------------------
 1/5=1,10=4,11=1,18=20,26=6,38=1/1,3;
 2/9=110,12=2,17=6,18=5,40=1/2;
 3/5=44,7=101,11=2,25=1,30=1,70=2201,71=2,72=1,74=-13,75=99590,124=31,140=1/1,2,3;
 4//1;
 5/5=2,38=5,53=1/2;
 8/6=4,10=90,11=11/1;
 11/6=1,8=1,9=11,15=111,16=1/1,2,10;
 10/6=1,13=1/2;
 6/7=2,8=2,9=2,10=2,28=1/1;
 7/10=1,18=20,25=1/1,2,3,16;
 1/5=1,10=4,11=1,18=20,26=6/3(2);
 2/9=110/2;
 99//99;
 2/9=110/2;
 3/5=44,7=101,11=2,25=1,30=1,70=2205,71=1,72=1,74=-13,75=99590,124=31/1,2,3;
 4/5=5,16=3,69=1/1;
 5/5=2,38=5,53=1/2;
 7//1,2,3,16;
 1/5=1,11=1,18=20,26=6/3(-5);
 2/9=110/2;
 6/7=2,8=2,9=2,10=2,19=2,28=1/1;
 99/9=1/99;
 Leave Link    1 at Thu Aug 29 20:33:57 2024, MaxMem=  8589934592 cpu:               0.7 elap:               0.0
 (Enter /share/apps/g16.b01_avx2/g16/l101.exe)
 ------------------
 pfp-ch2F_ester ts1
 ------------------
 Symbolic Z-matrix:
 Charge =  0 Multiplicity = 1
 H                    -2.32657   1.6415    0.16261 
 O                    -1.82377  -0.72564   1.24022 
 C                    -2.25774  -0.58416   0.10109 
 N                    -3.09036   0.98771   0.02173 
 H                    -3.43878   1.13929  -0.92016 
 C                    -4.12976   1.15763   1.03776 
 H                    -5.02708   0.61666   0.7535 
 H                    -3.75319   0.75212   1.97633 
 H                    -4.3764    2.21118   1.17101 
 C                    -3.25176  -1.51776  -0.5476 
 O                    -1.25866  -0.2855   -0.97109 
 C                     0.00867  -0.13136  -0.55521 
 C                     0.58166   1.13112  -0.45166 
 C                     0.81427  -1.22603  -0.25672 
 C                     1.90334   1.30492  -0.08103 
 C                     2.13532  -1.06893   0.12258 
 C                     2.68342   0.19976   0.21041 
 F                    -0.15878   2.20851  -0.71158 
 F                     0.31675  -2.45299  -0.35147 
 F                     2.42292   2.52395   0.00314 
 F                     2.88397  -2.13066   0.39819 
 F                     3.95125   0.35432   0.56926 
 F                    -2.7004   -2.75001  -0.5407 
 H                    -4.16096  -1.55413   0.01538 
 H                    -3.46996  -1.24096  -1.55789 
 
 Add virtual bond connecting atoms N4         and C3         Dist= 3.36D+00.
 ITRead=  0  0  0  0  0  0  0  0  0  0  0  0  0  0  0  0  0  0  0  0
 ITRead=  0  0  0  0  0
 MicOpt= -1 -1 -1 -1 -1 -1 -1 -1 -1 -1 -1 -1 -1 -1 -1 -1 -1 -1 -1 -1
 MicOpt= -1 -1 -1 -1 -1
 NAtoms=     25 NQM=       25 NQMF=       0 NMMI=      0 NMMIF=      0
                NMic=       0 NMicF=      0.
                    Isotopes and Nuclear Properties:
 (Nuclear quadrupole moments (NQMom) in fm**2, nuclear magnetic moments (NMagM)
  in nuclear magnetons)

  Atom         1           2           3           4           5           6           7           8           9          10
 IAtWgt=           1          16          12          14           1          12           1           1           1          12
 AtmWgt=   1.0078250  15.9949146  12.0000000  14.0030740   1.0078250  12.0000000   1.0078250   1.0078250   1.0078250  12.0000000
 NucSpn=           1           0           0           2           1           0           1           1           1           0
 AtZEff=  -0.0000000  -0.0000000  -0.0000000  -0.0000000  -0.0000000  -0.0000000  -0.0000000  -0.0000000  -0.0000000  -0.0000000
 NQMom=    0.0000000   0.0000000   0.0000000   2.0440000   0.0000000   0.0000000   0.0000000   0.0000000   0.0000000   0.0000000
 NMagM=    2.7928460   0.0000000   0.0000000   0.4037610   2.7928460   0.0000000   2.7928460   2.7928460   2.7928460   0.0000000
 AtZNuc=   1.0000000   8.0000000   6.0000000   7.0000000   1.0000000   6.0000000   1.0000000   1.0000000   1.0000000   6.0000000

  Atom        11          12          13          14          15          16          17          18          19          20
 IAtWgt=          16          12          12          12          12          12          12          19          19          19
 AtmWgt=  15.9949146  12.0000000  12.0000000  12.0000000  12.0000000  12.0000000  12.0000000  18.9984032  18.9984032  18.9984032
 NucSpn=           0           0           0           0           0           0           0           1           1           1
 AtZEff=  -0.0000000  -0.0000000  -0.0000000  -0.0000000  -0.0000000  -0.0000000  -0.0000000  -0.0000000  -0.0000000  -0.0000000
 NQMom=    0.0000000   0.0000000   0.0000000   0.0000000   0.0000000   0.0000000   0.0000000   0.0000000   0.0000000   0.0000000
 NMagM=    0.0000000   0.0000000   0.0000000   0.0000000   0.0000000   0.0000000   0.0000000   2.6288670   2.6288670   2.6288670
 AtZNuc=   8.0000000   6.0000000   6.0000000   6.0000000   6.0000000   6.0000000   6.0000000   9.0000000   9.0000000   9.0000000

  Atom        21          22          23          24          25
 IAtWgt=          19          19          19           1           1
 AtmWgt=  18.9984032  18.9984032  18.9984032   1.0078250   1.0078250
 NucSpn=           1           1           1           1           1
 AtZEff=  -0.0000000  -0.0000000  -0.0000000  -0.0000000  -0.0000000
 NQMom=    0.0000000   0.0000000   0.0000000   0.0000000   0.0000000
 NMagM=    2.6288670   2.6288670   2.6288670   2.7928460   2.7928460
 AtZNuc=   9.0000000   9.0000000   9.0000000   1.0000000   1.0000000
 Leave Link  101 at Thu Aug 29 20:33:57 2024, MaxMem=  8589934592 cpu:               6.6 elap:               0.3
 (Enter /share/apps/g16.b01_avx2/g16/l103.exe)

 GradGradGradGradGradGradGradGradGradGradGradGradGradGradGradGradGradGrad
 Berny optimization.
 Initialization pass.
                           ----------------------------
                           !    Initial Parameters    !
                           ! (Angstroms and Degrees)  !
 --------------------------                            --------------------------
 ! Name  Definition              Value          Derivative Info.                !
 --------------------------------------------------------------------------------
 ! R1    R(1,4)                  1.0152         calculate D2E/DX2 analytically  !
 ! R2    R(2,3)                  1.2272         calculate D2E/DX2 analytically  !
 ! R3    R(3,4)                  1.7805         calculate D2E/DX2 analytically  !
 ! R4    R(3,10)                 1.5101         calculate D2E/DX2 analytically  !
 ! R5    R(3,11)                 1.4956         calculate D2E/DX2 analytically  !
 ! R6    R(4,5)                  1.0156         calculate D2E/DX2 analytically  !
 ! R7    R(4,6)                  1.4634         calculate D2E/DX2 analytically  !
 ! R8    R(6,7)                  1.0856         calculate D2E/DX2 analytically  !
 ! R9    R(6,8)                  1.0896         calculate D2E/DX2 analytically  !
 ! R10   R(6,9)                  1.0902         calculate D2E/DX2 analytically  !
 ! R11   R(10,23)                1.35           calculate D2E/DX2 analytically  !
 ! R12   R(10,24)                1.07           calculate D2E/DX2 analytically  !
 ! R13   R(10,25)                1.07           calculate D2E/DX2 analytically  !
 ! R14   R(11,12)                1.3427         calculate D2E/DX2 analytically  !
 ! R15   R(12,13)                1.3903         calculate D2E/DX2 analytically  !
 ! R16   R(12,14)                1.3915         calculate D2E/DX2 analytically  !
 ! R17   R(13,15)                1.3836         calculate D2E/DX2 analytically  !
 ! R18   R(13,18)                1.3329         calculate D2E/DX2 analytically  !
 ! R19   R(14,16)                1.3834         calculate D2E/DX2 analytically  !
 ! R20   R(14,19)                1.3274         calculate D2E/DX2 analytically  !
 ! R21   R(15,17)                1.3838         calculate D2E/DX2 analytically  !
 ! R22   R(15,20)                1.3278         calculate D2E/DX2 analytically  !
 ! R23   R(16,17)                1.3848         calculate D2E/DX2 analytically  !
 ! R24   R(16,21)                1.328          calculate D2E/DX2 analytically  !
 ! R25   R(17,22)                1.3267         calculate D2E/DX2 analytically  !
 ! A1    A(2,3,4)              107.9698         calculate D2E/DX2 analytically  !
 ! A2    A(2,3,10)             124.0725         calculate D2E/DX2 analytically  !
 ! A3    A(2,3,11)             116.8869         calculate D2E/DX2 analytically  !
 ! A4    A(4,3,10)             102.6399         calculate D2E/DX2 analytically  !
 ! A5    A(4,3,11)              95.977          calculate D2E/DX2 analytically  !
 ! A6    A(10,3,11)            104.7864         calculate D2E/DX2 analytically  !
 ! A7    A(1,4,3)              102.1534         calculate D2E/DX2 analytically  !
 ! A8    A(1,4,5)              106.8978         calculate D2E/DX2 analytically  !
 ! A9    A(1,4,6)              111.2992         calculate D2E/DX2 analytically  !
 ! A10   A(3,4,5)              109.4823         calculate D2E/DX2 analytically  !
 ! A11   A(3,4,6)              113.8094         calculate D2E/DX2 analytically  !
 ! A12   A(5,4,6)              112.5123         calculate D2E/DX2 analytically  !
 ! A13   A(4,6,7)              110.3289         calculate D2E/DX2 analytically  !
 ! A14   A(4,6,8)              108.0218         calculate D2E/DX2 analytically  !
 ! A15   A(4,6,9)              110.9623         calculate D2E/DX2 analytically  !
 ! A16   A(7,6,8)              109.0111         calculate D2E/DX2 analytically  !
 ! A17   A(7,6,9)              109.0598         calculate D2E/DX2 analytically  !
 ! A18   A(8,6,9)              109.4245         calculate D2E/DX2 analytically  !
 ! A19   A(3,10,23)            107.0541         calculate D2E/DX2 analytically  !
 ! A20   A(3,10,24)            110.7514         calculate D2E/DX2 analytically  !
 ! A21   A(3,10,25)            112.3267         calculate D2E/DX2 analytically  !
 ! A22   A(23,10,24)           108.2595         calculate D2E/DX2 analytically  !
 ! A23   A(23,10,25)           108.9191         calculate D2E/DX2 analytically  !
 ! A24   A(24,10,25)           109.4088         calculate D2E/DX2 analytically  !
 ! A25   A(3,11,12)            115.5556         calculate D2E/DX2 analytically  !
 ! A26   A(11,12,13)           121.0857         calculate D2E/DX2 analytically  !
 ! A27   A(11,12,14)           121.504          calculate D2E/DX2 analytically  !
 ! A28   A(13,12,14)           117.3723         calculate D2E/DX2 analytically  !
 ! A29   A(12,13,15)           121.8508         calculate D2E/DX2 analytically  !
 ! A30   A(12,13,18)           119.3755         calculate D2E/DX2 analytically  !
 ! A31   A(15,13,18)           118.7734         calculate D2E/DX2 analytically  !
 ! A32   A(12,14,16)           121.4881         calculate D2E/DX2 analytically  !
 ! A33   A(12,14,19)           119.6596         calculate D2E/DX2 analytically  !
 ! A34   A(16,14,19)           118.847          calculate D2E/DX2 analytically  !
 ! A35   A(13,15,17)           119.6426         calculate D2E/DX2 analytically  !
 ! A36   A(13,15,20)           120.4039         calculate D2E/DX2 analytically  !
 ! A37   A(17,15,20)           119.9524         calculate D2E/DX2 analytically  !
 ! A38   A(14,16,17)           119.9596         calculate D2E/DX2 analytically  !
 ! A39   A(14,16,21)           120.2943         calculate D2E/DX2 analytically  !
 ! A40   A(17,16,21)           119.7455         calculate D2E/DX2 analytically  !
 ! A41   A(15,17,16)           119.6832         calculate D2E/DX2 analytically  !
 ! A42   A(15,17,22)           120.1759         calculate D2E/DX2 analytically  !
 ! A43   A(16,17,22)           120.1407         calculate D2E/DX2 analytically  !
 ! D1    D(2,3,4,1)             65.5037         calculate D2E/DX2 analytically  !
 ! D2    D(2,3,4,5)            178.5561         calculate D2E/DX2 analytically  !
 ! D3    D(2,3,4,6)            -54.5728         calculate D2E/DX2 analytically  !
 ! D4    D(10,3,4,1)          -161.9384         calculate D2E/DX2 analytically  !
 ! D5    D(10,3,4,5)           -48.886          calculate D2E/DX2 analytically  !
 ! D6    D(10,3,4,6)            77.9851         calculate D2E/DX2 analytically  !
 ! D7    D(11,3,4,1)           -55.292          calculate D2E/DX2 analytically  !
 ! D8    D(11,3,4,5)            57.7604         calculate D2E/DX2 analytically  !
 ! D9    D(11,3,4,6)          -175.3685         calculate D2E/DX2 analytically  !
 ! D10   D(2,3,10,23)          -58.0798         calculate D2E/DX2 analytically  !
 ! D11   D(2,3,10,24)           59.7405         calculate D2E/DX2 analytically  !
 ! D12   D(2,3,10,25)         -177.5922         calculate D2E/DX2 analytically  !
 ! D13   D(4,3,10,23)          179.6859         calculate D2E/DX2 analytically  !
 ! D14   D(4,3,10,24)          -62.4938         calculate D2E/DX2 analytically  !
 ! D15   D(4,3,10,25)           60.1735         calculate D2E/DX2 analytically  !
 ! D16   D(11,3,10,23)          79.9233         calculate D2E/DX2 analytically  !
 ! D17   D(11,3,10,24)        -162.2564         calculate D2E/DX2 analytically  !
 ! D18   D(11,3,10,25)         -39.589          calculate D2E/DX2 analytically  !
 ! D19   D(2,3,11,12)           -3.4956         calculate D2E/DX2 analytically  !
 ! D20   D(4,3,11,12)          110.1379         calculate D2E/DX2 analytically  !
 ! D21   D(10,3,11,12)        -145.0772         calculate D2E/DX2 analytically  !
 ! D22   D(1,4,6,7)            167.474          calculate D2E/DX2 analytically  !
 ! D23   D(1,4,6,8)            -73.4581         calculate D2E/DX2 analytically  !
 ! D24   D(1,4,6,9)             46.4856         calculate D2E/DX2 analytically  !
 ! D25   D(3,4,6,7)            -77.7537         calculate D2E/DX2 analytically  !
 ! D26   D(3,4,6,8)             41.3142         calculate D2E/DX2 analytically  !
 ! D27   D(3,4,6,9)            161.2579         calculate D2E/DX2 analytically  !
 ! D28   D(5,4,6,7)             47.5206         calculate D2E/DX2 analytically  !
 ! D29   D(5,4,6,8)            166.5885         calculate D2E/DX2 analytically  !
 ! D30   D(5,4,6,9)            -73.4678         calculate D2E/DX2 analytically  !
 ! D31   D(3,11,12,13)        -103.5116         calculate D2E/DX2 analytically  !
 ! D32   D(3,11,12,14)          78.7882         calculate D2E/DX2 analytically  !
 ! D33   D(11,12,13,15)       -177.1331         calculate D2E/DX2 analytically  !
 ! D34   D(11,12,13,18)          3.068          calculate D2E/DX2 analytically  !
 ! D35   D(14,12,13,15)          0.6589         calculate D2E/DX2 analytically  !
 ! D36   D(14,12,13,18)       -179.14           calculate D2E/DX2 analytically  !
 ! D37   D(11,12,14,16)        177.4962         calculate D2E/DX2 analytically  !
 ! D38   D(11,12,14,19)         -1.6568         calculate D2E/DX2 analytically  !
 ! D39   D(13,12,14,16)         -0.2859         calculate D2E/DX2 analytically  !
 ! D40   D(13,12,14,19)       -179.4389         calculate D2E/DX2 analytically  !
 ! D41   D(12,13,15,17)         -0.6664         calculate D2E/DX2 analytically  !
 ! D42   D(12,13,15,20)        179.7045         calculate D2E/DX2 analytically  !
 ! D43   D(18,13,15,17)        179.1338         calculate D2E/DX2 analytically  !
 ! D44   D(18,13,15,20)         -0.4954         calculate D2E/DX2 analytically  !
 ! D45   D(12,14,16,17)         -0.0743         calculate D2E/DX2 analytically  !
 ! D46   D(12,14,16,21)       -179.795          calculate D2E/DX2 analytically  !
 ! D47   D(19,14,16,17)        179.0854         calculate D2E/DX2 analytically  !
 ! D48   D(19,14,16,21)         -0.6353         calculate D2E/DX2 analytically  !
 ! D49   D(13,15,17,16)          0.2809         calculate D2E/DX2 analytically  !
 ! D50   D(13,15,17,22)       -179.8754         calculate D2E/DX2 analytically  !
 ! D51   D(20,15,17,16)        179.9118         calculate D2E/DX2 analytically  !
 ! D52   D(20,15,17,22)         -0.2446         calculate D2E/DX2 analytically  !
 ! D53   D(14,16,17,15)          0.0802         calculate D2E/DX2 analytically  !
 ! D54   D(14,16,17,22)       -179.7635         calculate D2E/DX2 analytically  !
 ! D55   D(21,16,17,15)        179.8024         calculate D2E/DX2 analytically  !
 ! D56   D(21,16,17,22)         -0.0413         calculate D2E/DX2 analytically  !
 --------------------------------------------------------------------------------
 Trust Radius=3.00D-01 FncErr=5.00D-06 GrdErr=5.00D-06 EigMax=2.50D+02 EigMin=1.00D-04
 Number of steps in this run=    134 maximum allowed number of steps=    150.
 Search for a saddle point of order  1.
 GradGradGradGradGradGradGradGradGradGradGradGradGradGradGradGradGradGrad

 Leave Link  103 at Thu Aug 29 20:33:57 2024, MaxMem=  8589934592 cpu:               0.1 elap:               0.0
 (Enter /share/apps/g16.b01_avx2/g16/l202.exe)
                          Input orientation:                          
 ---------------------------------------------------------------------
 Center     Atomic      Atomic             Coordinates (Angstroms)
 Number     Number       Type             X           Y           Z
 ---------------------------------------------------------------------
      1          1           0       -2.326566    1.641504    0.162606
      2          8           0       -1.823772   -0.725639    1.240224
      3          6           0       -2.257745   -0.584160    0.101089
      4          7           0       -3.090357    0.987705    0.021728
      5          1           0       -3.438781    1.139293   -0.920164
      6          6           0       -4.129761    1.157628    1.037757
      7          1           0       -5.027080    0.616655    0.753504
      8          1           0       -3.753187    0.752118    1.976328
      9          1           0       -4.376399    2.211177    1.171006
     10          6           0       -3.251764   -1.517757   -0.547600
     11          8           0       -1.258660   -0.285496   -0.971088
     12          6           0        0.008670   -0.131356   -0.555206
     13          6           0        0.581659    1.131115   -0.451657
     14          6           0        0.814272   -1.226032   -0.256722
     15          6           0        1.903338    1.304921   -0.081032
     16          6           0        2.135320   -1.068935    0.122576
     17          6           0        2.683421    0.199763    0.210406
     18          9           0       -0.158784    2.208505   -0.711581
     19          9           0        0.316746   -2.452994   -0.351468
     20          9           0        2.422915    2.523947    0.003140
     21          9           0        2.883973   -2.130662    0.398185
     22          9           0        3.951251    0.354320    0.569262
     23          9           0       -2.700403   -2.750012   -0.540701
     24          1           0       -4.160957   -1.554126    0.015379
     25          1           0       -3.469956   -1.240963   -1.557886
 ---------------------------------------------------------------------
                    Distance matrix (angstroms):
                    1          2          3          4          5
     1  H    0.000000
     2  O    2.649043   0.000000
     3  C    2.227577   1.227183   0.000000
     4  N    1.015222   2.454489   1.780534   0.000000
     5  H    1.631450   3.279253   2.325531   1.015647   0.000000
     6  C    2.061926   2.984170   2.723163   1.463403   2.076354
     7  H    2.948263   3.507112   3.088174   2.103347   2.365800
     8  H    2.473023   2.539342   2.745634   2.077331   2.939119
     9  H    2.354403   3.891733   3.667060   2.114622   2.530031
    10  C    3.367687   2.421348   1.510124   2.574398   2.689553
    11  O    2.477703   2.324431   1.495639   2.441688   2.604908
    12  C    3.018545   2.633360   2.402580   3.345014   3.692243
    13  C    3.015889   3.477944   3.363021   3.705180   4.047654
    14  C    4.273577   3.074169   3.158689   4.497143   4.911556
    15  C    4.250263   4.445249   4.573446   5.004815   5.410158
    16  C    5.220777   4.128123   4.419784   5.616728   6.085571
    17  C    5.213528   4.715049   5.004159   5.830349   6.296210
    18  F    2.405197   3.897554   3.586788   3.259174   3.456169
    19  F    4.900641   3.177901   3.213309   4.856546   5.227994
    20  F    4.833395   5.488582   5.619475   5.723334   6.093376
    21  F    6.436960   4.984574   5.377471   6.749708   7.239328
    22  F    6.421308   5.913323   6.296949   7.091207   7.579390
    23  F    4.463161   2.835183   2.301903   3.799858   3.976920
    24  H    3.687644   2.765696   2.137849   2.758103   2.941307
    25  H    3.546272   3.287081   2.157091   2.757940   2.464402
                    6          7          8          9         10
     6  C    0.000000
     7  H    1.085649   0.000000
     8  H    1.089570   1.771003   0.000000
     9  H    1.090207   1.772059   1.779267   0.000000
    10  C    3.231396   3.065996   3.431322   4.257154   0.000000
    11  O    3.789629   4.241354   3.998321   4.532355   2.381233
    12  C    4.617967   5.256522   4.619606   5.262708   3.542964
    13  C    4.941309   5.759777   4.982935   5.327467   4.660564
    14  C    5.639235   6.207854   5.455389   6.387165   4.086852
    15  C    6.137725   7.014332   6.044386   6.467147   5.895784
    16  C    6.711660   7.385070   6.436392   7.366195   5.447132
    17  C    6.929752   7.740838   6.697275   7.403350   6.225020
    18  F    4.464659   5.327360   4.718649   4.618703   4.845456
    19  F    5.893892   6.261005   5.679413   6.789553   3.694239
    20  F    6.773096   7.726787   6.721390   6.905969   6.988610
    21  F    7.772668   8.382050   7.406271   8.494811   6.238384
    22  F    8.134344   8.984052   7.841967   8.553348   7.525655
    23  F    4.450196   4.292184   4.439449   5.509292   1.350000
    24  H    2.898248   2.450977   3.054564   3.944540   1.070000
    25  H    3.595266   3.349313   4.067340   4.492856   1.070000
                   11         12         13         14         15
    11  O    0.000000
    12  C    1.342700   0.000000
    13  C    2.379783   1.390278   0.000000
    14  C    2.385786   1.391547   2.376605   0.000000
    15  C    3.649638   2.424355   1.383621   2.760916   0.000000
    16  C    3.650887   2.420967   2.753875   1.383371   2.393839
    17  C    4.143840   2.801802   2.392310   2.396835   1.383777
    18  F    2.738085   2.351052   1.332886   3.598580   2.338034
    19  F    2.750251   2.350835   3.595282   1.327383   4.088072
    20  F    4.732450   3.631937   2.353093   4.088717   1.327806
    21  F    4.737188   3.629538   4.081920   2.351791   3.604792
    22  F    5.470394   4.128469   3.605529   3.608379   2.349569
    23  F    2.887507   3.767844   5.083602   3.841366   6.152090
    24  H    3.317509   4.442481   5.470014   4.993455   6.705156
    25  H    2.479330   3.786480   4.823493   4.477484   6.126574
                   16         17         18         19         20
    16  C    0.000000
    17  C    1.384819   0.000000
    18  F    4.086605   3.600449   0.000000
    19  F    2.333998   3.599163   4.699509   0.000000
    20  F    3.606352   2.347904   2.697313   5.415869   0.000000
    21  F    1.328046   2.346564   5.414640   2.693795   4.694041
    22  F    2.350061   1.326672   4.687318   4.683843   2.713593
    23  F    5.162380   6.184730   5.574578   3.037633   7.372841
    24  H    6.315854   7.068216   5.541052   4.581743   7.744560
    25  H    5.854286   6.562515   4.855813   4.154946   7.165004
                   21         22         23         24         25
    21  F    0.000000
    22  F    2.709887   0.000000
    23  F    5.696521   7.423839   0.000000
    24  H    7.078840   8.352058   1.967889   0.000000
    25  H    6.707473   7.883147   1.975882   1.746629   0.000000
 Stoichiometry    C9H7F6NO2
 Framework group  C1[X(C9H7F6NO2)]
 Deg. of freedom    69
 Full point group                 C1      NOp   1
 Largest Abelian subgroup         C1      NOp   1
 Largest concise Abelian subgroup C1      NOp   1
                         Standard orientation:                         
 ---------------------------------------------------------------------
 Center     Atomic      Atomic             Coordinates (Angstroms)
 Number     Number       Type             X           Y           Z
 ---------------------------------------------------------------------
      1          1           0        1.951067   -2.042111    0.152337
      2          8           0        1.701353    0.327458    1.310014
      3          6           0        2.134067    0.177854    0.171438
      4          7           0        2.785643   -1.474274    0.044077
      5          1           0        3.129199   -1.631161   -0.898735
      6          6           0        3.783624   -1.796061    1.064879
      7          1           0        4.740367   -1.350322    0.810731
      8          1           0        3.440722   -1.383738    2.013336
      9          1           0        3.908077   -2.874750    1.162306
     10          6           0        3.236652    1.015305   -0.431438
     11          8           0        1.124280    0.031757   -0.922144
     12          6           0       -0.158573    0.007331   -0.526499
     13          6           0       -0.871497   -1.185155   -0.475635
     14          6           0       -0.840367    1.174891   -0.197312
     15          6           0       -2.209866   -1.221381   -0.126546
     16          6           0       -2.176362    1.154882    0.161061
     17          6           0       -2.865019   -0.046050    0.196271
     18          9           0       -0.253086   -2.329539   -0.766393
     19          9           0       -0.206548    2.340337   -0.241529
     20          9           0       -2.864538   -2.376084   -0.092854
     21          9           0       -2.804932    2.284090    0.466828
     22          9           0       -4.147541   -0.068834    0.534910
     23          9           0        2.827405    2.300967   -0.385725
     24          1           0        4.135423    0.928952    0.142717
     25          1           0        3.437779    0.751204   -1.448639
 ---------------------------------------------------------------------
 Rotational constants (GHZ):           0.6457340           0.2914513           0.2178498
 Leave Link  202 at Thu Aug 29 20:33:57 2024, MaxMem=  8589934592 cpu:               0.0 elap:               0.0
 (Enter /share/apps/g16.b01_avx2/g16/l301.exe)
 Standard basis: def2TZVP (5D, 7F)
 Ernie: Thresh=  0.10000D-02 Tol=  0.10000D-05 Strict=F.
 There are   690 symmetry adapted cartesian basis functions of A   symmetry.
 There are   600 symmetry adapted basis functions of A   symmetry.
   600 basis functions,   974 primitive gaussians,   690 cartesian basis functions
    69 alpha electrons       69 beta electrons
       nuclear repulsion energy      1487.1281066818 Hartrees.
 IExCor= 1009 DFT=T Ex+Corr=PBE1PBE ExCW=0 ScaHFX=  0.250000
 ScaDFX=  0.750000  0.750000  1.000000  1.000000 ScalE2=  1.000000  1.000000
 IRadAn=  99590 IRanWt=     -1 IRanGd=            0 ICorTp=0 IEmpDi=131
 NAtoms=   25 NActive=   25 NUniq=   25 SFac= 1.00D+00 NAtFMM=   60 NAOKFM=F Big=F
 Integral buffers will be    131072 words long.
 Raffenetti 2 integral format.
 Two-electron integral symmetry is turned on.
 R6Disp:  Grimme-D3 Dispersion energy=       -0.0159529767 Hartrees.
 Nuclear repulsion after empirical dispersion term =     1487.1121537051 Hartrees.
 Force inversion solution in PCM.
 ------------------------------------------------------------------------------
 Polarizable Continuum Model (PCM)
 =================================
 Model                : PCM.
 Atomic radii         : UFF (Universal Force Field).
 Polarization charges : Total charges.
 Charge compensation  : None.
 Solution method      : Matrix inversion.
 Cavity type          : Scaled VdW (van der Waals Surface) (Alpha=1.100).
 Cavity algorithm     : GePol (No added spheres)
                        Default sphere list used, NSphG=   25.
                        Lebedev-Laikov grids with approx.  5.0 points / Ang**2.
                        Smoothing algorithm: York/Karplus (Gamma=1.0000).
                        Polarization charges: spherical gaussians, with
                                              point-specific exponents (IZeta= 3).
                        Self-potential: point-specific (ISelfS= 7).
                        Self-field    : sphere-specific E.n sum rule (ISelfD= 2).
 1st derivatives      : Analytical E(r).r(x)/FMM algorithm (CHGder, D1EAlg=3).
                        Cavity 1st derivative terms included.
 2nd derivatives      : Analytical E(r).r(xy)/FMM algorithm (CHGder, D2EAlg=3).
                        Cavity 2nd derivative terms included.
 Solvent              : Water, Eps=  78.355300 Eps(inf)=   1.777849
 ------------------------------------------------------------------------------
 GePol: Number of generator spheres                  =      25
 GePol: Total number of spheres                      =      25
 GePol: Number of exposed spheres                    =      25 (100.00%)
 GePol: Number of points                             =    2174
 GePol: Average weight of points                     =       0.13
 GePol: Minimum weight of points                     =   0.34D-10
 GePol: Maximum weight of points                     =    0.20577
 GePol: Number of points with low weight             =     108
 GePol: Fraction of low-weight points (<1% of avg)   =       4.97%
 GePol: Cavity surface area                          =    278.344 Ang**2
 GePol: Cavity volume                                =    294.057 Ang**3
 Leave Link  301 at Thu Aug 29 20:33:57 2024, MaxMem=  8589934592 cpu:               0.8 elap:               0.0
 (Enter /share/apps/g16.b01_avx2/g16/l302.exe)
 NPDir=0 NMtPBC=     1 NCelOv=     1 NCel=       1 NClECP=     1 NCelD=      1
         NCelK=      1 NCelE2=     1 NClLst=     1 CellRange=     0.0.
 One-electron integrals computed using PRISM.
 One-electron integral symmetry used in STVInt
   1 Symmetry operations used in ECPInt.
 ECPInt:  NShTT=   25651 NPrTT=   81420 LenC2=   22476 LenP2D=   50887.
 LDataN:  DoStor=T MaxTD1= 6 Len=  172
 NBasis=   600 RedAO= T EigKep=  1.46D-05  NBF=   600
 NBsUse=   600 1.00D-06 EigRej= -1.00D+00 NBFU=   600
 Precomputing XC quadrature grid using
 IXCGrd= 4 IRadAn=       99590 IRanWt=          -1 IRanGd=           0 AccXCQ= 0.00D+00.
 Generated NRdTot=       0 NPtTot=           0 NUsed=           0 NTot=          32
 NSgBfM=   680   680   680   680   680 MxSgAt=    25 MxSgA2=    25.
 Leave Link  302 at Thu Aug 29 20:33:57 2024, MaxMem=  8589934592 cpu:               9.4 elap:               0.4
 (Enter /share/apps/g16.b01_avx2/g16/l303.exe)
 DipDrv:  MaxL=1.
 Leave Link  303 at Thu Aug 29 20:33:58 2024, MaxMem=  8589934592 cpu:               1.3 elap:               0.1
 (Enter /share/apps/g16.b01_avx2/g16/l401.exe)
 ExpMin= 9.52D-02 ExpMax= 3.55D+04 ExpMxC= 1.21D+03 IAcc=4 IRadAn=    199590 AccDes= 0.00D+00
 Harris functional with IExCor= 1009 and IRadAn=  199590 diagonalized for initial guess.
 HarFok:  IExCor= 1009 AccDes= 0.00D+00 IRadAn=    199590 IDoV= 1 UseB2=F ITyADJ=14
 ICtDFT=  3500011 ScaDFX=  1.000000  1.000000  1.000000  1.000000
 FoFCou: FMM=F IPFlag=           0 FMFlag=      100000 FMFlg1=           0
         NFxFlg=           0 DoJE=T BraDBF=F KetDBF=T FulRan=T
         wScrn=  0.000000 ICntrl=       500 IOpCl=  0 I1Cent=   200000004 NGrid=           0
         NMat0=    1 NMatS0=      1 NMatT0=    0 NMatD0=    1 NMtDS0=    0 NMtDT0=    0
 Petite list used in FoFCou.
 Harris En= -1150.72627225637    
 JPrj=0 DoOrth=F DoCkMO=F.
 Leave Link  401 at Thu Aug 29 20:34:00 2024, MaxMem=  8589934592 cpu:              66.8 elap:               2.8
 (Enter /share/apps/g16.b01_avx2/g16/l502.exe)
 Integral symmetry usage will be decided dynamically.
 Closed shell SCF:
 Using DIIS extrapolation, IDIIS=  1040.
 NGot=  8589934592 LenX=  8588959925 LenY=  8588483135
 Requested convergence on RMS density matrix=1.00D-08 within 128 cycles.
 Requested convergence on MAX density matrix=1.00D-06.
 Requested convergence on             energy=1.00D-06.
 No special actions if energy rises.
 Fock matrices will be formed incrementally for  20 cycles.

 Cycle   1  Pass 1  IDiag  1:
 FoFJK:  IHMeth= 1 ICntrl=       0 DoSepK=F KAlg= 0 I1Cent=           0 FoldK=F
 IRaf= 810000000 NMat=       1 IRICut=       1 DoRegI=T DoRafI=F ISym2E= 0 IDoP0=0 IntGTp=1.
 FoFCou: FMM=F IPFlag=           0 FMFlag=      100000 FMFlg1=           0
         NFxFlg=           0 DoJE=F BraDBF=F KetDBF=F FulRan=T
         wScrn=  0.000000 ICntrl=         0 IOpCl=  0 I1Cent=           0 NGrid=           0
         NMat0=    1 NMatS0=      1 NMatT0=    0 NMatD0=    1 NMtDS0=    0 NMtDT0=    0
 Symmetry not used in FoFCou.
 Inv3:  Mode=1 IEnd=    14178828.
 Iteration    1 A*A^-1 deviation from unit magnitude is 3.33D-15 for   1135.
 Iteration    1 A*A^-1 deviation from orthogonality  is 2.22D-15 for   1919     21.
 Iteration    1 A^-1*A deviation from unit magnitude is 3.33D-15 for   1135.
 Iteration    1 A^-1*A deviation from orthogonality  is 2.15D-15 for   1663   1201.
 E= -1150.44650130727    
 DIIS: error= 1.57D-02 at cycle   1 NSaved=   1.
 NSaved= 1 IEnMin= 1 EnMin= -1150.44650130727     IErMin= 1 ErrMin= 1.57D-02
 ErrMax= 1.57D-02  0.00D+00 EMaxC= 1.00D-01 BMatC= 3.32D-01 BMatP= 3.32D-01
 IDIUse=3 WtCom= 8.43D-01 WtEn= 1.57D-01
 Coeff-Com:  0.100D+01
 Coeff-En:   0.100D+01
 Coeff:      0.100D+01
 Gap=     0.260 Goal=   None    Shift=    0.000
 GapD=    0.260 DampG=1.000 DampE=0.500 DampFc=0.5000 IDamp=-1.
 Damping current iteration by 5.00D-01
 RMSDP=2.66D-03 MaxDP=3.48D-01              OVMax= 2.62D-01

 Cycle   2  Pass 1  IDiag  1:
 RMSU=  1.33D-03    CP:  1.00D+00
 E= -1150.52582863169     Delta-E=       -0.079327324421 Rises=F Damp=T
 DIIS: error= 4.91D-03 at cycle   2 NSaved=   2.
 NSaved= 2 IEnMin= 2 EnMin= -1150.52582863169     IErMin= 2 ErrMin= 4.91D-03
 ErrMax= 4.91D-03  0.00D+00 EMaxC= 1.00D-01 BMatC= 4.14D-02 BMatP= 3.32D-01
 IDIUse=3 WtCom= 9.51D-01 WtEn= 4.91D-02
 Coeff-Com:  0.981D-01 0.902D+00
 Coeff-En:   0.224D+00 0.776D+00
 Coeff:      0.104D+00 0.896D+00
 Gap=     0.295 Goal=   None    Shift=    0.000
 RMSDP=9.66D-04 MaxDP=1.35D-01 DE=-7.93D-02 OVMax= 1.66D-01

 Cycle   3  Pass 1  IDiag  1:
 RMSU=  6.64D-04    CP:  9.90D-01  4.80D-01
 E= -1150.63763194393     Delta-E=       -0.111803312241 Rises=F Damp=F
 DIIS: error= 6.77D-03 at cycle   3 NSaved=   3.
 NSaved= 3 IEnMin= 3 EnMin= -1150.63763194393     IErMin= 2 ErrMin= 4.91D-03
 ErrMax= 6.77D-03  0.00D+00 EMaxC= 1.00D-01 BMatC= 3.83D-02 BMatP= 4.14D-02
 IDIUse=3 WtCom= 9.32D-01 WtEn= 6.77D-02
 Coeff-Com: -0.563D-01 0.503D+00 0.553D+00
 Coeff-En:   0.000D+00 0.000D+00 0.100D+01
 Coeff:     -0.525D-01 0.469D+00 0.583D+00
 Gap=     0.249 Goal=   None    Shift=    0.000
 RMSDP=3.54D-04 MaxDP=2.47D-02 DE=-1.12D-01 OVMax= 6.01D-02

 Cycle   4  Pass 1  IDiag  1:
 RMSU=  3.13D-04    CP:  9.87D-01  5.56D-01  8.05D-01
 E= -1150.66141753476     Delta-E=       -0.023785590831 Rises=F Damp=F
 DIIS: error= 2.55D-03 at cycle   4 NSaved=   4.
 NSaved= 4 IEnMin= 4 EnMin= -1150.66141753476     IErMin= 4 ErrMin= 2.55D-03
 ErrMax= 2.55D-03  0.00D+00 EMaxC= 1.00D-01 BMatC= 4.74D-03 BMatP= 3.83D-02
 IDIUse=3 WtCom= 9.74D-01 WtEn= 2.55D-02
 Coeff-Com: -0.382D-01 0.136D+00 0.309D+00 0.593D+00
 Coeff-En:   0.000D+00 0.000D+00 0.943D-01 0.906D+00
 Coeff:     -0.373D-01 0.133D+00 0.304D+00 0.601D+00
 Gap=     0.247 Goal=   None    Shift=    0.000
 RMSDP=1.21D-04 MaxDP=7.18D-03 DE=-2.38D-02 OVMax= 1.62D-02

 Cycle   5  Pass 1  IDiag  1:
 RMSU=  6.73D-05    CP:  9.87D-01  5.64D-01  8.87D-01  7.34D-01
 E= -1150.66472078769     Delta-E=       -0.003303252932 Rises=F Damp=F
 DIIS: error= 4.71D-04 at cycle   5 NSaved=   5.
 NSaved= 5 IEnMin= 5 EnMin= -1150.66472078769     IErMin= 5 ErrMin= 4.71D-04
 ErrMax= 4.71D-04  0.00D+00 EMaxC= 1.00D-01 BMatC= 4.29D-04 BMatP= 4.74D-03
 IDIUse=3 WtCom= 9.95D-01 WtEn= 4.71D-03
 Coeff-Com: -0.165D-01 0.401D-01 0.120D+00 0.330D+00 0.527D+00
 Coeff-En:   0.000D+00 0.000D+00 0.000D+00 0.966D-02 0.990D+00
 Coeff:     -0.164D-01 0.399D-01 0.119D+00 0.329D+00 0.529D+00
 Gap=     0.247 Goal=   None    Shift=    0.000
 RMSDP=3.65D-05 MaxDP=2.55D-03 DE=-3.30D-03 OVMax= 4.93D-03

 Cycle   6  Pass 1  IDiag  1:
 RMSU=  1.96D-05    CP:  9.87D-01  5.64D-01  8.73D-01  7.59D-01  5.80D-01
 E= -1150.66503375246     Delta-E=       -0.000312964766 Rises=F Damp=F
 DIIS: error= 1.51D-04 at cycle   6 NSaved=   6.
 NSaved= 6 IEnMin= 6 EnMin= -1150.66503375246     IErMin= 6 ErrMin= 1.51D-04
 ErrMax= 1.51D-04  0.00D+00 EMaxC= 1.00D-01 BMatC= 2.16D-05 BMatP= 4.29D-04
 IDIUse=3 WtCom= 9.98D-01 WtEn= 1.51D-03
 Coeff-Com: -0.564D-02 0.101D-01 0.342D-01 0.116D+00 0.258D+00 0.587D+00
 Coeff-En:   0.000D+00 0.000D+00 0.000D+00 0.000D+00 0.000D+00 0.100D+01
 Coeff:     -0.563D-02 0.101D-01 0.342D-01 0.116D+00 0.257D+00 0.588D+00
 Gap=     0.247 Goal=   None    Shift=    0.000
 RMSDP=8.48D-06 MaxDP=5.41D-04 DE=-3.13D-04 OVMax= 1.17D-03

 Cycle   7  Pass 1  IDiag  1:
 RMSU=  6.02D-06    CP:  9.88D-01  5.65D-01  8.73D-01  7.52D-01  6.13D-01
                    CP:  7.55D-01
 E= -1150.66504922830     Delta-E=       -0.000015475837 Rises=F Damp=F
 DIIS: error= 4.22D-05 at cycle   7 NSaved=   7.
 NSaved= 7 IEnMin= 7 EnMin= -1150.66504922830     IErMin= 7 ErrMin= 4.22D-05
 ErrMax= 4.22D-05  0.00D+00 EMaxC= 1.00D-01 BMatC= 1.74D-06 BMatP= 2.16D-05
 IDIUse=1 WtCom= 1.00D+00 WtEn= 0.00D+00
 Coeff-Com: -0.149D-02 0.194D-02 0.696D-02 0.306D-01 0.848D-01 0.283D+00
 Coeff-Com:  0.595D+00
 Coeff:     -0.149D-02 0.194D-02 0.696D-02 0.306D-01 0.848D-01 0.283D+00
 Coeff:      0.595D+00
 Gap=     0.247 Goal=   None    Shift=    0.000
 RMSDP=2.74D-06 MaxDP=2.53D-04 DE=-1.55D-05 OVMax= 2.61D-04

 Cycle   8  Pass 1  IDiag  1:
 RMSU=  1.64D-06    CP:  9.87D-01  5.64D-01  8.73D-01  7.57D-01  6.14D-01
                    CP:  7.92D-01  8.32D-01
 E= -1150.66505041772     Delta-E=       -0.000001189422 Rises=F Damp=F
 DIIS: error= 1.44D-05 at cycle   8 NSaved=   8.
 NSaved= 8 IEnMin= 8 EnMin= -1150.66505041772     IErMin= 8 ErrMin= 1.44D-05
 ErrMax= 1.44D-05  0.00D+00 EMaxC= 1.00D-01 BMatC= 1.89D-07 BMatP= 1.74D-06
 IDIUse=1 WtCom= 1.00D+00 WtEn= 0.00D+00
 Coeff-Com: -0.142D-03-0.140D-04-0.301D-03 0.207D-02 0.123D-01 0.686D-01
 Coeff-Com:  0.290D+00 0.628D+00
 Coeff:     -0.142D-03-0.140D-04-0.301D-03 0.207D-02 0.123D-01 0.686D-01
 Coeff:      0.290D+00 0.628D+00
 Gap=     0.247 Goal=   None    Shift=    0.000
 RMSDP=7.76D-07 MaxDP=6.82D-05 DE=-1.19D-06 OVMax= 1.14D-04

 Cycle   9  Pass 1  IDiag  1:
 RMSU=  4.78D-07    CP:  9.87D-01  5.65D-01  8.73D-01  7.56D-01  6.16D-01
                    CP:  8.04D-01  8.64D-01  7.50D-01
 E= -1150.66505056038     Delta-E=       -0.000000142658 Rises=F Damp=F
 DIIS: error= 4.70D-06 at cycle   9 NSaved=   9.
 NSaved= 9 IEnMin= 9 EnMin= -1150.66505056038     IErMin= 9 ErrMin= 4.70D-06
 ErrMax= 4.70D-06  0.00D+00 EMaxC= 1.00D-01 BMatC= 1.56D-08 BMatP= 1.89D-07
 IDIUse=1 WtCom= 1.00D+00 WtEn= 0.00D+00
 Coeff-Com:  0.731D-04-0.191D-03-0.814D-03-0.200D-02-0.286D-02 0.134D-02
 Coeff-Com:  0.651D-01 0.288D+00 0.652D+00
 Coeff:      0.731D-04-0.191D-03-0.814D-03-0.200D-02-0.286D-02 0.134D-02
 Coeff:      0.651D-01 0.288D+00 0.652D+00
 Gap=     0.247 Goal=   None    Shift=    0.000
 RMSDP=2.14D-07 MaxDP=1.24D-05 DE=-1.43D-07 OVMax= 2.45D-05

 Cycle  10  Pass 1  IDiag  1:
 RMSU=  9.96D-08    CP:  9.87D-01  5.65D-01  8.73D-01  7.56D-01  6.15D-01
                    CP:  8.06D-01  8.80D-01  8.11D-01  8.04D-01
 E= -1150.66505057372     Delta-E=       -0.000000013342 Rises=F Damp=F
 DIIS: error= 4.25D-07 at cycle  10 NSaved=  10.
 NSaved=10 IEnMin=10 EnMin= -1150.66505057372     IErMin=10 ErrMin= 4.25D-07
 ErrMax= 4.25D-07  0.00D+00 EMaxC= 1.00D-01 BMatC= 2.83D-10 BMatP= 1.56D-08
 IDIUse=1 WtCom= 1.00D+00 WtEn= 0.00D+00
 Coeff-Com:  0.191D-04-0.453D-04-0.226D-03-0.572D-03-0.104D-02-0.114D-02
 Coeff-Com:  0.119D-01 0.685D-01 0.192D+00 0.730D+00
 Coeff:      0.191D-04-0.453D-04-0.226D-03-0.572D-03-0.104D-02-0.114D-02
 Coeff:      0.119D-01 0.685D-01 0.192D+00 0.730D+00
 Gap=     0.247 Goal=   None    Shift=    0.000
 RMSDP=4.40D-08 MaxDP=2.07D-06 DE=-1.33D-08 OVMax= 8.52D-06

 Cycle  11  Pass 1  IDiag  1:
 RMSU=  3.66D-08    CP:  9.87D-01  5.65D-01  8.73D-01  7.56D-01  6.15D-01
                    CP:  8.06D-01  8.82D-01  8.19D-01  8.14D-01  9.13D-01
 E= -1150.66505057390     Delta-E=       -0.000000000183 Rises=F Damp=F
 DIIS: error= 2.75D-07 at cycle  11 NSaved=  11.
 NSaved=11 IEnMin=11 EnMin= -1150.66505057390     IErMin=11 ErrMin= 2.75D-07
 ErrMax= 2.75D-07  0.00D+00 EMaxC= 1.00D-01 BMatC= 1.11D-10 BMatP= 2.83D-10
 IDIUse=1 WtCom= 1.00D+00 WtEn= 0.00D+00
 Coeff-Com:  0.321D-05-0.468D-05-0.455D-04-0.114D-03-0.329D-03-0.932D-03
 Coeff-Com: -0.162D-02 0.278D-02 0.270D-01 0.404D+00 0.570D+00
 Coeff:      0.321D-05-0.468D-05-0.455D-04-0.114D-03-0.329D-03-0.932D-03
 Coeff:     -0.162D-02 0.278D-02 0.270D-01 0.404D+00 0.570D+00
 Gap=     0.247 Goal=   None    Shift=    0.000
 RMSDP=1.74D-08 MaxDP=1.12D-06 DE=-1.83D-10 OVMax= 3.93D-06

 Cycle  12  Pass 1  IDiag  1:
 RMSU=  1.06D-08    CP:  9.87D-01  5.65D-01  8.73D-01  7.56D-01  6.15D-01
                    CP:  8.06D-01  8.82D-01  8.20D-01  8.19D-01  9.75D-01
                    CP:  7.06D-01
 E= -1150.66505057398     Delta-E=       -0.000000000079 Rises=F Damp=F
 DIIS: error= 5.62D-08 at cycle  12 NSaved=  12.
 NSaved=12 IEnMin=12 EnMin= -1150.66505057398     IErMin=12 ErrMin= 5.62D-08
 ErrMax= 5.62D-08  0.00D+00 EMaxC= 1.00D-01 BMatC= 7.04D-12 BMatP= 1.11D-10
 IDIUse=1 WtCom= 1.00D+00 WtEn= 0.00D+00
 Coeff-Com: -0.468D-06 0.252D-05-0.199D-05 0.197D-05-0.629D-04-0.288D-03
 Coeff-Com: -0.187D-02-0.538D-02-0.650D-02 0.118D+00 0.253D+00 0.643D+00
 Coeff:     -0.468D-06 0.252D-05-0.199D-05 0.197D-05-0.629D-04-0.288D-03
 Coeff:     -0.187D-02-0.538D-02-0.650D-02 0.118D+00 0.253D+00 0.643D+00
 Gap=     0.247 Goal=   None    Shift=    0.000
 RMSDP=6.07D-09 MaxDP=4.70D-07 DE=-7.91D-11 OVMax= 8.68D-07

 Error on total polarization charges =  0.00864
 SCF Done:  E(RPBE1PBE) =  -1150.66505057     A.U. after   12 cycles
            NFock= 12  Conv=0.61D-08     -V/T= 2.0036
 KE= 1.146538137842D+03 PE=-5.693423949754D+03 EE= 1.909108607632D+03
 Leave Link  502 at Thu Aug 29 20:35:19 2024, MaxMem=  8589934592 cpu:            1884.3 elap:              78.9
 (Enter /share/apps/g16.b01_avx2/g16/l801.exe)
 DoSCS=F DFT=T ScalE2(SS,OS)=  1.000000  1.000000
 Range of M.O.s used for correlation:     1   600
 NBasis=   600 NAE=    69 NBE=    69 NFC=     0 NFV=     0
 NROrb=    600 NOA=    69 NOB=    69 NVA=   531 NVB=   531

 **** Warning!!: The largest alpha MO coefficient is  0.56064247D+02

 Leave Link  801 at Thu Aug 29 20:35:19 2024, MaxMem=  8589934592 cpu:               0.4 elap:               0.0
 (Enter /share/apps/g16.b01_avx2/g16/l1101.exe)
 Using compressed storage, NAtomX=    25.
 Will process     26 centers per pass.
   1 Symmetry operations used in ECPInt.
 ECPInt:  NShTT=   25651 NPrTT=   81420 LenC2=   22476 LenP2D=   50887.
 LDataN:  DoStor=T MaxTD1= 7 Len=  274
 Number of processors reduced to  21 by ecpmxn.
 R6Disp: Adding Grimme-D3 dispersion energy 1st derivatives to the gradient.
 Leave Link 1101 at Thu Aug 29 20:35:20 2024, MaxMem=  8589934592 cpu:              24.8 elap:               1.1
 (Enter /share/apps/g16.b01_avx2/g16/l1102.exe)
 Symmetrizing basis deriv contribution to polar:
 IMax=3 JMax=2 DiffMx= 0.00D+00
 Leave Link 1102 at Thu Aug 29 20:35:21 2024, MaxMem=  8589934592 cpu:               1.1 elap:               0.1
 (Enter /share/apps/g16.b01_avx2/g16/l1110.exe)
 Forming Gx(P) for the SCF density, NAtomX=    25.
 Integral derivatives from FoFJK, PRISM(SPDF).
 Do as many integral derivatives as possible in FoFJK.
 G2DrvN: MDV=    8589932456.
 G2DrvN: will do    26 centers at a time, making    1 passes.
 Calling FoFCou, ICntrl=  3107 FMM=F I1Cent=   0 AccDes= 0.00D+00.
 FoFJK:  IHMeth= 1 ICntrl=    3107 DoSepK=F KAlg= 0 I1Cent=           0 FoldK=F
 IRaf=         0 NMat=       1 IRICut=       1 DoRegI=T DoRafI=F ISym2E= 0 IDoP0=0 IntGTp=1.
 FoFCou: FMM=F IPFlag=           0 FMFlag=      100000 FMFlg1=           0
         NFxFlg=           0 DoJE=F BraDBF=F KetDBF=F FulRan=T
         wScrn=  0.000000 ICntrl=      3107 IOpCl=  0 I1Cent=           0 NGrid=           0
         NMat0=    1 NMatS0=      1 NMatT0=    0 NMatD0=    1 NMtDS0=    0 NMtDT0=    0
 Symmetry not used in FoFCou.
 NEqPCM:  Using equilibrium solvation (IEInf=0, Eps=  78.3553, EpsInf=   1.7778)
 G2PCM: DoFxE=T DoFxN=T DoGrad=T DoDP/DQ/DG/TGxP=FFFF NFrqRd=   0 IEInf=0 SqF1=F DoCFld=F IF1Alg=4.
 GePol: Maximum number of non-zero 1st derivatives   =     219
 End of G2Drv F.D. properties file   721 does not exist.
 End of G2Drv F.D. properties file   722 does not exist.
 End of G2Drv F.D. properties file   788 does not exist.
 Leave Link 1110 at Thu Aug 29 20:37:48 2024, MaxMem=  8589934592 cpu:            3524.6 elap:             147.0
 (Enter /share/apps/g16.b01_avx2/g16/l1002.exe)
 Minotr:  Closed shell wavefunction.
          IDoAtm=1111111111111111111111111
 NEqPCM:  Using equilibrium solvation (IEInf=0, Eps=  78.3553, EpsInf=   1.7778)
          Direct CPHF calculation.
          Differentiating once with respect to nuclear coordinates.
          Requested convergence is 1.0D-08 RMS, and 1.0D-07 maximum.
          Secondary convergence is 1.0D-12 RMS, and 1.0D-12 maximum.
          NewPWx=T KeepS1=F KeepF1=F KeepIn=T MapXYZ=F SortEE=F KeepMc=T.
        17426 words used for storage of precomputed grid.
 Two-electron integrals replicated using symmetry.
          MDV=    8589934592 using IRadAn=   99302.
          Solving linear equations simultaneously, MaxMat=     384.
 FoF2E skips out because all densities are zero.
 CalDSu exits because no D1Ps are significant.
 FoFJK:  IHMeth= 1 ICntrl=       0 DoSepK=F KAlg= 0 I1Cent=           0 FoldK=F
 IRaf= 790000000 NMat=      75 IRICut=     187 DoRegI=T DoRafI=T ISym2E= 2 IDoP0=3 IntGTp=3.
          There are    78 degrees of freedom in the 1st order CPHF.  IDoFFX=6 NUNeed=     0.
     72 vectors produced by pass  0 Test12= 4.70D-14 1.28D-09 XBig12= 1.48D-01 1.89D-01.
 AX will form    72 AO Fock derivatives at one time.
     72 vectors produced by pass  1 Test12= 4.70D-14 1.28D-09 XBig12= 2.70D-02 3.83D-02.
     72 vectors produced by pass  2 Test12= 4.70D-14 1.28D-09 XBig12= 6.79D-04 3.04D-03.
     72 vectors produced by pass  3 Test12= 4.70D-14 1.28D-09 XBig12= 6.02D-06 3.23D-04.
     72 vectors produced by pass  4 Test12= 4.70D-14 1.28D-09 XBig12= 2.22D-08 1.57D-05.
     72 vectors produced by pass  5 Test12= 4.70D-14 1.28D-09 XBig12= 4.99D-11 7.83D-07.
     42 vectors produced by pass  6 Test12= 4.70D-14 1.28D-09 XBig12= 1.23D-13 2.85D-08.
      4 vectors produced by pass  7 Test12= 4.70D-14 1.28D-09 XBig12= 5.86D-16 2.15D-09.
      4 vectors produced by pass  8 Test12= 4.70D-14 1.28D-09 XBig12= 1.76D-15 4.00D-09.
      4 vectors produced by pass  9 Test12= 4.70D-14 1.28D-09 XBig12= 9.40D-15 7.68D-09.
      4 vectors produced by pass 10 Test12= 4.70D-14 1.28D-09 XBig12= 2.39D-14 1.51D-08.
      3 vectors produced by pass 11 Test12= 4.70D-14 1.28D-09 XBig12= 3.19D-15 5.35D-09.
      3 vectors produced by pass 12 Test12= 4.70D-14 1.28D-09 XBig12= 7.28D-15 9.61D-09.
      2 vectors produced by pass 13 Test12= 4.70D-14 1.28D-09 XBig12= 1.90D-15 4.79D-09.
 InvSVY:  IOpt=1 It=  1 EMax= 6.11D-16
 Solved reduced A of dimension   498 with    78 vectors.
 End of Minotr F.D. properties file   721 does not exist.
 End of Minotr F.D. properties file   722 does not exist.
 End of Minotr F.D. properties file   788 does not exist.
 Leave Link 1002 at Thu Aug 29 20:45:58 2024, MaxMem=  8589934592 cpu:           11745.6 elap:             489.7
 (Enter /share/apps/g16.b01_avx2/g16/l601.exe)
 Copying SCF densities to generalized density rwf, IOpCl= 0 IROHF=0.

 **********************************************************************

            Population analysis using the SCF Density.

 **********************************************************************

 Orbital symmetries:
       Occupied  (A) (A) (A) (A) (A) (A) (A) (A) (A) (A) (A) (A)
                 (A) (A) (A) (A) (A) (A) (A) (A) (A) (A) (A) (A)
                 (A) (A) (A) (A) (A) (A) (A) (A) (A) (A) (A) (A)
                 (A) (A) (A) (A) (A) (A) (A) (A) (A) (A) (A) (A)
                 (A) (A) (A) (A) (A) (A) (A) (A) (A) (A) (A) (A)
                 (A) (A) (A) (A) (A) (A) (A) (A) (A)
       Virtual   (A) (A) (A) (A) (A) (A) (A) (A) (A) (A) (A) (A)
                 (A) (A) (A) (A) (A) (A) (A) (A) (A) (A) (A) (A)
                 (A) (A) (A) (A) (A) (A) (A) (A) (A) (A) (A) (A)
                 (A) (A) (A) (A) (A) (A) (A) (A) (A) (A) (A) (A)
                 (A) (A) (A) (A) (A) (A) (A) (A) (A) (A) (A) (A)
                 (A) (A) (A) (A) (A) (A) (A) (A) (A) (A) (A) (A)
                 (A) (A) (A) (A) (A) (A) (A) (A) (A) (A) (A) (A)
                 (A) (A) (A) (A) (A) (A) (A) (A) (A) (A) (A) (A)
                 (A) (A) (A) (A) (A) (A) (A) (A) (A) (A) (A) (A)
                 (A) (A) (A) (A) (A) (A) (A) (A) (A) (A) (A) (A)
                 (A) (A) (A) (A) (A) (A) (A) (A) (A) (A) (A) (A)
                 (A) (A) (A) (A) (A) (A) (A) (A) (A) (A) (A) (A)
                 (A) (A) (A) (A) (A) (A) (A) (A) (A) (A) (A) (A)
                 (A) (A) (A) (A) (A) (A) (A) (A) (A) (A) (A) (A)
                 (A) (A) (A) (A) (A) (A) (A) (A) (A) (A) (A) (A)
                 (A) (A) (A) (A) (A) (A) (A) (A) (A) (A) (A) (A)
                 (A) (A) (A) (A) (A) (A) (A) (A) (A) (A) (A) (A)
                 (A) (A) (A) (A) (A) (A) (A) (A) (A) (A) (A) (A)
                 (A) (A) (A) (A) (A) (A) (A) (A) (A) (A) (A) (A)
                 (A) (A) (A) (A) (A) (A) (A) (A) (A) (A) (A) (A)
                 (A) (A) (A) (A) (A) (A) (A) (A) (A) (A) (A) (A)
                 (A) (A) (A) (A) (A) (A) (A) (A) (A) (A) (A) (A)
                 (A) (A) (A) (A) (A) (A) (A) (A) (A) (A) (A) (A)
                 (A) (A) (A) (A) (A) (A) (A) (A) (A) (A) (A) (A)
                 (A) (A) (A) (A) (A) (A) (A) (A) (A) (A) (A) (A)
                 (A) (A) (A) (A) (A) (A) (A) (A) (A) (A) (A) (A)
                 (A) (A) (A) (A) (A) (A) (A) (A) (A) (A) (A) (A)
                 (A) (A) (A) (A) (A) (A) (A) (A) (A) (A) (A) (A)
                 (A) (A) (A) (A) (A) (A) (A) (A) (A) (A) (A) (A)
                 (A) (A) (A) (A) (A) (A) (A) (A) (A) (A) (A) (A)
                 (A) (A) (A) (A) (A) (A) (A) (A) (A) (A) (A) (A)
                 (A) (A) (A) (A) (A) (A) (A) (A) (A) (A) (A) (A)
                 (A) (A) (A) (A) (A) (A) (A) (A) (A) (A) (A) (A)
                 (A) (A) (A) (A) (A) (A) (A) (A) (A) (A) (A) (A)
                 (A) (A) (A) (A) (A) (A) (A) (A) (A) (A) (A) (A)
                 (A) (A) (A) (A) (A) (A) (A) (A) (A) (A) (A) (A)
                 (A) (A) (A) (A) (A) (A) (A) (A) (A) (A) (A) (A)
                 (A) (A) (A) (A) (A) (A) (A) (A) (A) (A) (A) (A)
                 (A) (A) (A) (A) (A) (A) (A) (A) (A) (A) (A) (A)
                 (A) (A) (A) (A) (A) (A) (A) (A) (A) (A) (A) (A)
                 (A) (A) (A) (A) (A) (A) (A) (A) (A) (A) (A) (A)
                 (A) (A) (A) (A) (A) (A) (A) (A) (A) (A) (A) (A)
                 (A) (A) (A) (A) (A) (A) (A) (A) (A) (A) (A) (A)
                 (A) (A) (A) (A) (A) (A) (A) (A) (A) (A) (A) (A)
                 (A) (A) (A)
 The electronic state is 1-A.
 Alpha  occ. eigenvalues --  -24.81756 -24.81660 -24.81626 -24.81543 -24.80937
 Alpha  occ. eigenvalues --  -24.76844 -19.24418 -19.16392 -14.45474 -10.36753
 Alpha  occ. eigenvalues --  -10.34319 -10.34130 -10.34043 -10.33798 -10.33635
 Alpha  occ. eigenvalues --  -10.31302 -10.29651 -10.26120  -1.30946  -1.30268
 Alpha  occ. eigenvalues --   -1.29617  -1.28855  -1.28473  -1.25259  -1.12282
 Alpha  occ. eigenvalues --   -1.04104  -0.97695  -0.92805  -0.81224  -0.80962
 Alpha  occ. eigenvalues --   -0.77094  -0.72626  -0.69634  -0.69545  -0.64006
 Alpha  occ. eigenvalues --   -0.62639  -0.62277  -0.59642  -0.57745  -0.57535
 Alpha  occ. eigenvalues --   -0.56853  -0.56195  -0.55540  -0.55064  -0.54245
 Alpha  occ. eigenvalues --   -0.52739  -0.52205  -0.51135  -0.50947  -0.49931
 Alpha  occ. eigenvalues --   -0.49504  -0.48533  -0.48215  -0.47421  -0.46984
 Alpha  occ. eigenvalues --   -0.44634  -0.44484  -0.43150  -0.41662  -0.41604
 Alpha  occ. eigenvalues --   -0.40605  -0.39048  -0.37375  -0.36805  -0.33474
 Alpha  occ. eigenvalues --   -0.29996  -0.27579  -0.27291  -0.26761
 Alpha virt. eigenvalues --   -0.02068  -0.01354  -0.01131   0.03623   0.05140
 Alpha virt. eigenvalues --    0.07038   0.07840   0.08798   0.09199   0.11127
 Alpha virt. eigenvalues --    0.12120   0.12207   0.12906   0.14017   0.15122
 Alpha virt. eigenvalues --    0.15889   0.16864   0.17800   0.18003   0.18883
 Alpha virt. eigenvalues --    0.19744   0.20019   0.21078   0.21230   0.23409
 Alpha virt. eigenvalues --    0.23832   0.24454   0.25182   0.26304   0.27040
 Alpha virt. eigenvalues --    0.28212   0.28727   0.28923   0.29370   0.29920
 Alpha virt. eigenvalues --    0.30858   0.31642   0.32620   0.33240   0.33919
 Alpha virt. eigenvalues --    0.34752   0.35325   0.36432   0.37194   0.38477
 Alpha virt. eigenvalues --    0.39154   0.39620   0.39945   0.40232   0.40791
 Alpha virt. eigenvalues --    0.41199   0.41939   0.42660   0.43355   0.43760
 Alpha virt. eigenvalues --    0.44121   0.44643   0.45129   0.45470   0.46600
 Alpha virt. eigenvalues --    0.47014   0.47359   0.48296   0.48647   0.50619
 Alpha virt. eigenvalues --    0.51000   0.52548   0.52967   0.53230   0.54902
 Alpha virt. eigenvalues --    0.55723   0.56361   0.57504   0.59239   0.61732
 Alpha virt. eigenvalues --    0.62060   0.62842   0.62970   0.64288   0.65672
 Alpha virt. eigenvalues --    0.65873   0.67530   0.68764   0.70008   0.70579
 Alpha virt. eigenvalues --    0.71328   0.71807   0.73290   0.73990   0.74579
 Alpha virt. eigenvalues --    0.75424   0.76986   0.78079   0.78396   0.79709
 Alpha virt. eigenvalues --    0.80842   0.82209   0.82409   0.84497   0.84514
 Alpha virt. eigenvalues --    0.84953   0.85746   0.86500   0.87051   0.87456
 Alpha virt. eigenvalues --    0.88241   0.89754   0.90314   0.91609   0.91977
 Alpha virt. eigenvalues --    0.94417   0.94548   0.95179   0.96283   0.96918
 Alpha virt. eigenvalues --    0.99317   0.99859   1.00416   1.00961   1.02509
 Alpha virt. eigenvalues --    1.03617   1.04135   1.05547   1.05938   1.08532
 Alpha virt. eigenvalues --    1.09696   1.10895   1.11409   1.12824   1.13622
 Alpha virt. eigenvalues --    1.14620   1.15725   1.17504   1.18657   1.19231
 Alpha virt. eigenvalues --    1.20567   1.21948   1.24576   1.27227   1.27823
 Alpha virt. eigenvalues --    1.30592   1.31034   1.31598   1.32873   1.34997
 Alpha virt. eigenvalues --    1.37135   1.38612   1.39630   1.40369   1.42405
 Alpha virt. eigenvalues --    1.45008   1.45257   1.45896   1.46411   1.47527
 Alpha virt. eigenvalues --    1.48914   1.50991   1.52178   1.53076   1.54510
 Alpha virt. eigenvalues --    1.55070   1.56716   1.56998   1.58179   1.61562
 Alpha virt. eigenvalues --    1.62918   1.65064   1.66113   1.67929   1.70656
 Alpha virt. eigenvalues --    1.72161   1.72508   1.73255   1.73484   1.74978
 Alpha virt. eigenvalues --    1.76499   1.78255   1.78912   1.81509   1.81735
 Alpha virt. eigenvalues --    1.81984   1.83507   1.84067   1.85899   1.87576
 Alpha virt. eigenvalues --    1.89660   1.92763   1.93538   1.94692   1.94982
 Alpha virt. eigenvalues --    1.95561   1.96481   1.96958   1.99252   2.00480
 Alpha virt. eigenvalues --    2.01493   2.02480   2.03486   2.04637   2.05155
 Alpha virt. eigenvalues --    2.06914   2.07126   2.07480   2.09644   2.10849
 Alpha virt. eigenvalues --    2.13510   2.15275   2.15868   2.17524   2.18421
 Alpha virt. eigenvalues --    2.19656   2.20257   2.21674   2.22203   2.23582
 Alpha virt. eigenvalues --    2.26226   2.26960   2.29050   2.30597   2.31526
 Alpha virt. eigenvalues --    2.33363   2.33582   2.35220   2.35849   2.36519
 Alpha virt. eigenvalues --    2.37430   2.39580   2.40387   2.41711   2.44563
 Alpha virt. eigenvalues --    2.44755   2.46216   2.46670   2.49606   2.50220
 Alpha virt. eigenvalues --    2.51511   2.52197   2.54812   2.57192   2.57451
 Alpha virt. eigenvalues --    2.59051   2.59452   2.60524   2.62246   2.62705
 Alpha virt. eigenvalues --    2.62939   2.63650   2.65014   2.66115   2.67246
 Alpha virt. eigenvalues --    2.69739   2.70374   2.72436   2.74233   2.76837
 Alpha virt. eigenvalues --    2.77040   2.77652   2.79334   2.79949   2.80866
 Alpha virt. eigenvalues --    2.81094   2.82682   2.83775   2.84361   2.85347
 Alpha virt. eigenvalues --    2.86609   2.88608   2.89008   2.89703   2.91477
 Alpha virt. eigenvalues --    2.91553   2.92092   2.93685   2.94519   2.95033
 Alpha virt. eigenvalues --    2.96287   2.98008   2.99910   3.00796   3.01611
 Alpha virt. eigenvalues --    3.02457   3.03488   3.05165   3.06126   3.07365
 Alpha virt. eigenvalues --    3.08292   3.09407   3.10712   3.11930   3.12063
 Alpha virt. eigenvalues --    3.13091   3.14653   3.15662   3.17196   3.17882
 Alpha virt. eigenvalues --    3.19594   3.19801   3.20221   3.20473   3.21263
 Alpha virt. eigenvalues --    3.22285   3.22906   3.23481   3.24828   3.26681
 Alpha virt. eigenvalues --    3.27709   3.29309   3.30928   3.31394   3.32169
 Alpha virt. eigenvalues --    3.35405   3.36456   3.36958   3.38890   3.40055
 Alpha virt. eigenvalues --    3.41143   3.42558   3.43086   3.44766   3.45453
 Alpha virt. eigenvalues --    3.46007   3.46431   3.47357   3.48707   3.49399
 Alpha virt. eigenvalues --    3.50504   3.51631   3.53194   3.54010   3.55770
 Alpha virt. eigenvalues --    3.56593   3.58580   3.60241   3.61504   3.63716
 Alpha virt. eigenvalues --    3.64207   3.66309   3.69825   3.71324   3.72675
 Alpha virt. eigenvalues --    3.73612   3.75726   3.78097   3.81188   3.82160
 Alpha virt. eigenvalues --    3.82800   3.84658   3.84947   3.87425   3.88000
 Alpha virt. eigenvalues --    3.88579   3.90770   3.93880   3.97675   3.98050
 Alpha virt. eigenvalues --    3.99977   4.02269   4.03709   4.05140   4.06536
 Alpha virt. eigenvalues --    4.09316   4.09418   4.12793   4.13127   4.13942
 Alpha virt. eigenvalues --    4.15447   4.16117   4.17213   4.18893   4.21111
 Alpha virt. eigenvalues --    4.21537   4.22916   4.23463   4.28284   4.30178
 Alpha virt. eigenvalues --    4.31819   4.35897   4.38181   4.39599   4.41093
 Alpha virt. eigenvalues --    4.43388   4.45571   4.48860   4.49514   4.52488
 Alpha virt. eigenvalues --    4.56193   4.59890   4.61474   4.67175   4.71722
 Alpha virt. eigenvalues --    4.72647   4.79230   4.82680   4.84692   4.86512
 Alpha virt. eigenvalues --    4.87622   4.88357   4.90340   4.91990   4.94097
 Alpha virt. eigenvalues --    5.01319   5.05725   5.08752   5.13733   5.15383
 Alpha virt. eigenvalues --    5.21362   5.25003   5.25682   5.29800   5.31677
 Alpha virt. eigenvalues --    5.37531   5.37731   5.42065   5.44360   5.45958
 Alpha virt. eigenvalues --    5.49166   5.54701   5.57237   5.58617   5.65510
 Alpha virt. eigenvalues --    5.69584   5.78185   5.84256   5.87585   5.94302
 Alpha virt. eigenvalues --    6.07529   6.20811   6.32369   6.38167   6.41097
 Alpha virt. eigenvalues --    6.48571   6.50898   6.59332   6.73931   6.77668
 Alpha virt. eigenvalues --    6.84747   6.85053   6.85372   6.85561   6.85963
 Alpha virt. eigenvalues --    6.86372   6.86865   6.87127   6.87197   6.88297
 Alpha virt. eigenvalues --    6.89593   6.90501   6.91536   6.94027   6.96300
 Alpha virt. eigenvalues --    6.97733   6.98707   7.00747   7.00925   7.02633
 Alpha virt. eigenvalues --    7.03506   7.06826   7.06931   7.09071   7.09877
 Alpha virt. eigenvalues --    7.12972   7.14674   7.17100   7.17470   7.20486
 Alpha virt. eigenvalues --    7.24017   7.26883   7.28037   7.29462   7.29673
 Alpha virt. eigenvalues --    7.30531   7.32517   7.33986   7.36648   7.37210
 Alpha virt. eigenvalues --    7.41730   7.43839   7.46934   7.50769   7.67032
 Alpha virt. eigenvalues --    7.67714   7.75631   8.09139   8.30688   8.33203
 Alpha virt. eigenvalues --    8.35497   8.37339   8.41112   8.41843   8.42959
 Alpha virt. eigenvalues --    8.43948   8.53998   8.56527   8.58858   8.69425
 Alpha virt. eigenvalues --    8.72860   8.76412   8.77317   8.80017   8.80908
 Alpha virt. eigenvalues --    8.82613   8.87427   8.87985   8.89446   8.92978
 Alpha virt. eigenvalues --    8.94475   9.00361   9.02031   9.04585   9.07384
 Alpha virt. eigenvalues --    9.09742   9.12469   9.40136  22.27465  22.43967
 Alpha virt. eigenvalues --   22.61896  22.97379  22.98259  23.08713  23.13724
 Alpha virt. eigenvalues --   23.14623  23.75375  32.21912  44.20342  44.58183
 Alpha virt. eigenvalues --   57.19830  57.36116  57.40090  57.46344  57.53739
 Alpha virt. eigenvalues --   57.65111
          Condensed to atoms (all electrons):
               1          2          3          4          5          6
     1  H    0.423094   0.004273  -0.003899   0.340904  -0.020888  -0.017756
     2  O    0.004273   8.005781   0.673163  -0.089083   0.004039  -0.011247
     3  C   -0.003899   0.673163   4.898095   0.047007   0.001568  -0.023607
     4  N    0.340904  -0.089083   0.047007   6.421728   0.344751   0.273583
     5  H   -0.020888   0.004039   0.001568   0.344751   0.416337  -0.022764
     6  C   -0.017756  -0.011247  -0.023607   0.273583  -0.022764   4.897978
     7  H    0.006000   0.000014  -0.004658  -0.028859  -0.006827   0.412177
     8  H   -0.002591   0.019519   0.003108  -0.045607   0.007042   0.403704
     9  H   -0.008257  -0.000370   0.002615  -0.020796  -0.002989   0.404475
    10  C    0.003634  -0.061102   0.293411  -0.003514  -0.005564   0.006532
    11  O   -0.001784  -0.091476   0.186009  -0.034871   0.002578   0.003473
    12  C   -0.004624  -0.022030  -0.129795   0.028932  -0.000948  -0.000545
    13  C    0.000027   0.027836   0.008943  -0.018287   0.001697   0.000853
    14  C    0.000413   0.025754  -0.031302   0.005606  -0.000308  -0.000081
    15  C   -0.001087  -0.003122   0.002644  -0.000145   0.000050   0.000084
    16  C   -0.000011  -0.005643  -0.000690   0.000442  -0.000025  -0.000018
    17  C    0.000044   0.000290   0.000249  -0.000180   0.000006   0.000001
    18  F    0.011049  -0.000403  -0.000984  -0.002745   0.000152  -0.000118
    19  F   -0.000001  -0.002148   0.003154  -0.000048   0.000001   0.000005
    20  F   -0.000018  -0.000001   0.000027  -0.000001  -0.000000   0.000000
    21  F   -0.000000   0.000000   0.000013  -0.000000   0.000000   0.000000
    22  F    0.000000  -0.000000  -0.000001  -0.000000   0.000000  -0.000000
    23  F   -0.000124  -0.000563  -0.071385   0.002631  -0.000062  -0.000574
    24  H   -0.000063   0.001642  -0.064645   0.000274  -0.000121   0.005313
    25  H   -0.000451   0.005127  -0.044509   0.006334   0.000403  -0.001450
               7          8          9         10         11         12
     1  H    0.006000  -0.002591  -0.008257   0.003634  -0.001784  -0.004624
     2  O    0.000014   0.019519  -0.000370  -0.061102  -0.091476  -0.022030
     3  C   -0.004658   0.003108   0.002615   0.293411   0.186009  -0.129795
     4  N   -0.028859  -0.045607  -0.020796  -0.003514  -0.034871   0.028932
     5  H   -0.006827   0.007042  -0.002989  -0.005564   0.002578  -0.000948
     6  C    0.412177   0.403704   0.404475   0.006532   0.003473  -0.000545
     7  H    0.494553  -0.021473  -0.018677   0.002745  -0.000120   0.000061
     8  H   -0.021473   0.500213  -0.021608  -0.003391   0.000886  -0.000826
     9  H   -0.018677  -0.021608   0.497184   0.000025  -0.000046   0.000128
    10  C    0.002745  -0.003391   0.000025   4.706088  -0.053677  -0.000742
    11  O   -0.000120   0.000886  -0.000046  -0.053677   8.062339   0.269725
    12  C    0.000061  -0.000826   0.000128  -0.000742   0.269725   5.455006
    13  C    0.000002   0.000320  -0.000126   0.001485  -0.029973   0.126525
    14  C   -0.000002  -0.000165   0.000008   0.000222  -0.026921   0.239560
    15  C   -0.000001   0.000009  -0.000006  -0.000336   0.007482   0.017217
    16  C   -0.000001  -0.000000   0.000002   0.000601   0.010144  -0.025991
    17  C    0.000000   0.000006  -0.000001  -0.000057   0.001515  -0.000935
    18  F   -0.000010   0.000012   0.000014  -0.000001  -0.001155  -0.040230
    19  F    0.000000   0.000001  -0.000000   0.002291   0.002077  -0.067228
    20  F   -0.000000  -0.000000   0.000000   0.000000  -0.000056   0.009435
    21  F    0.000000  -0.000000  -0.000000  -0.000003  -0.000062   0.009691
    22  F   -0.000000  -0.000000   0.000000   0.000000  -0.000001  -0.001052
    23  F   -0.000012   0.000038  -0.000002   0.282464   0.004169  -0.000555
    24  H   -0.002364  -0.000380   0.000414   0.432199   0.006664   0.000799
    25  H   -0.000023   0.000097   0.000029   0.408498   0.002102  -0.001543
              13         14         15         16         17         18
     1  H    0.000027   0.000413  -0.001087  -0.000011   0.000044   0.011049
     2  O    0.027836   0.025754  -0.003122  -0.005643   0.000290  -0.000403
     3  C    0.008943  -0.031302   0.002644  -0.000690   0.000249  -0.000984
     4  N   -0.018287   0.005606  -0.000145   0.000442  -0.000180  -0.002745
     5  H    0.001697  -0.000308   0.000050  -0.000025   0.000006   0.000152
     6  C    0.000853  -0.000081   0.000084  -0.000018   0.000001  -0.000118
     7  H    0.000002  -0.000002  -0.000001  -0.000001   0.000000  -0.000010
     8  H    0.000320  -0.000165   0.000009  -0.000000   0.000006   0.000012
     9  H   -0.000126   0.000008  -0.000006   0.000002  -0.000001   0.000014
    10  C    0.001485   0.000222  -0.000336   0.000601  -0.000057  -0.000001
    11  O   -0.029973  -0.026921   0.007482   0.010144   0.001515  -0.001155
    12  C    0.126525   0.239560   0.017217  -0.025991  -0.000935  -0.040230
    13  C    5.288730   0.026678   0.275521  -0.018165  -0.057900   0.247517
    14  C    0.026678   5.086646  -0.003137   0.320712  -0.075641   0.005520
    15  C    0.275521  -0.003137   4.997301  -0.045101   0.384713  -0.030723
    16  C   -0.018165   0.320712  -0.045101   5.021609   0.381536  -0.000404
    17  C   -0.057900  -0.075641   0.384713   0.381536   4.996431   0.006667
    18  F    0.247517   0.005520  -0.030723  -0.000404   0.006667   8.992684
    19  F    0.005486   0.298265  -0.001211  -0.039890   0.007363  -0.000030
    20  F   -0.054292  -0.001219   0.294302   0.007088  -0.045055   0.000643
    21  F   -0.000914  -0.051672   0.007355   0.289628  -0.044923   0.000000
    22  F    0.008936   0.008017  -0.045982  -0.045194   0.285274  -0.000027
    23  F   -0.000134   0.003982   0.000006   0.000815  -0.000010   0.000000
    24  H    0.000071   0.000275  -0.000012   0.000051   0.000001   0.000000
    25  H   -0.001684   0.000079   0.000065   0.000027  -0.000014   0.000006
              19         20         21         22         23         24
     1  H   -0.000001  -0.000018  -0.000000   0.000000  -0.000124  -0.000063
     2  O   -0.002148  -0.000001   0.000000  -0.000000  -0.000563   0.001642
     3  C    0.003154   0.000027   0.000013  -0.000001  -0.071385  -0.064645
     4  N   -0.000048  -0.000001  -0.000000  -0.000000   0.002631   0.000274
     5  H    0.000001  -0.000000   0.000000   0.000000  -0.000062  -0.000121
     6  C    0.000005   0.000000   0.000000  -0.000000  -0.000574   0.005313
     7  H    0.000000  -0.000000   0.000000  -0.000000  -0.000012  -0.002364
     8  H    0.000001  -0.000000  -0.000000  -0.000000   0.000038  -0.000380
     9  H   -0.000000   0.000000  -0.000000   0.000000  -0.000002   0.000414
    10  C    0.002291   0.000000  -0.000003   0.000000   0.282464   0.432199
    11  O    0.002077  -0.000056  -0.000062  -0.000001   0.004169   0.006664
    12  C   -0.067228   0.009435   0.009691  -0.001052  -0.000555   0.000799
    13  C    0.005486  -0.054292  -0.000914   0.008936  -0.000134   0.000071
    14  C    0.298265  -0.001219  -0.051672   0.008017   0.003982   0.000275
    15  C   -0.001211   0.294302   0.007355  -0.045982   0.000006  -0.000012
    16  C   -0.039890   0.007088   0.289628  -0.045194   0.000815   0.000051
    17  C    0.007363  -0.045055  -0.044923   0.285274  -0.000010   0.000001
    18  F   -0.000030   0.000643   0.000000  -0.000027   0.000000   0.000000
    19  F    8.965049   0.000000   0.000647  -0.000028  -0.000654  -0.000008
    20  F    0.000000   8.961268  -0.000028   0.001156   0.000000   0.000000
    21  F    0.000647  -0.000028   8.962922   0.001107  -0.000000  -0.000000
    22  F   -0.000028   0.001156   0.001107   8.959132   0.000000  -0.000000
    23  F   -0.000654   0.000000  -0.000000   0.000000   9.087783  -0.037556
    24  H   -0.000008   0.000000  -0.000000  -0.000000  -0.037556   0.583586
    25  H   -0.000183  -0.000000   0.000000  -0.000000  -0.039485  -0.052423
              25
     1  H   -0.000451
     2  O    0.005127
     3  C   -0.044509
     4  N    0.006334
     5  H    0.000403
     6  C   -0.001450
     7  H   -0.000023
     8  H    0.000097
     9  H    0.000029
    10  C    0.408498
    11  O    0.002102
    12  C   -0.001543
    13  C   -0.001684
    14  C    0.000079
    15  C    0.000065
    16  C    0.000027
    17  C   -0.000014
    18  F    0.000006
    19  F   -0.000183
    20  F   -0.000000
    21  F    0.000000
    22  F   -0.000000
    23  F   -0.039485
    24  H   -0.052423
    25  H    0.595407
 Mulliken charges:
               1
     1  H    0.272114
     2  O   -0.480251
     3  C    0.255471
     4  N   -0.228055
     5  H    0.281873
     6  C   -0.330017
     7  H    0.167477
     8  H    0.161085
     9  H    0.167985
    10  C   -0.011809
    11  O   -0.319020
    12  C    0.139965
    13  C    0.160848
    14  C    0.168713
    15  C    0.144115
    16  C    0.148479
    17  C    0.160618
    18  F   -0.187433
    19  F   -0.172911
    20  F   -0.173251
    21  F   -0.173760
    22  F   -0.171336
    23  F   -0.230771
    24  H    0.126283
    25  H    0.123589
 Sum of Mulliken charges =  -0.00000
 Mulliken charges with hydrogens summed into heavy atoms:
               1
     2  O   -0.480251
     3  C    0.255471
     4  N    0.325932
     6  C    0.166530
    10  C    0.238063
    11  O   -0.319020
    12  C    0.139965
    13  C    0.160848
    14  C    0.168713
    15  C    0.144115
    16  C    0.148479
    17  C    0.160618
    18  F   -0.187433
    19  F   -0.172911
    20  F   -0.173251
    21  F   -0.173760
    22  F   -0.171336
    23  F   -0.230771
 APT charges:
               1
     1  H    0.183847
     2  O   -0.451598
     3  C    0.167653
     4  N   -0.476692
     5  H    0.657109
     6  C   -1.411590
     7  H    0.704852
     8  H    0.201538
     9  H    0.684684
    10  C   -0.987565
    11  O   -0.202238
    12  C   -0.129579
    13  C   -0.143244
    14  C   -0.169797
    15  C   -0.016503
    16  C   -0.024687
    17  C    0.041650
    18  F   -0.040346
    19  F   -0.021305
    20  F    0.130141
    21  F    0.117248
    22  F    0.205746
    23  F   -0.146817
    24  H    0.682877
    25  H    0.444618
 Sum of APT charges =  -0.00000
 APT charges with hydrogens summed into heavy atoms:
               1
     2  O   -0.451598
     3  C    0.167653
     4  N    0.364264
     6  C    0.179484
    10  C    0.139929
    11  O   -0.202238
    12  C   -0.129579
    13  C   -0.143244
    14  C   -0.169797
    15  C   -0.016503
    16  C   -0.024687
    17  C    0.041650
    18  F   -0.040346
    19  F   -0.021305
    20  F    0.130141
    21  F    0.117248
    22  F    0.205746
    23  F   -0.146817
 Electronic spatial extent (au):  <R**2>=           4623.4872
 Charge=             -0.0000 electrons
 Dipole moment (field-independent basis, Debye):
    X=              6.8276    Y=             -6.7003    Z=             -2.3049  Tot=              9.8399
 Quadrupole moment (field-independent basis, Debye-Ang):
   XX=            -77.1785   YY=           -101.7115   ZZ=           -100.3981
   XY=            -18.0614   XZ=             -2.1495   YZ=             -2.7214
 Traceless Quadrupole moment (field-independent basis, Debye-Ang):
   XX=             15.9175   YY=             -8.6155   ZZ=             -7.3020
   XY=            -18.0614   XZ=             -2.1495   YZ=             -2.7214
 Octapole moment (field-independent basis, Debye-Ang**2):
  XXX=            131.5784  YYY=            -24.6776  ZZZ=             -8.7049  XYY=             18.5569
  XXY=            -46.7069  XXZ=            -12.5270  XZZ=             -8.1073  YZZ=             -2.5466
  YYZ=              4.3456  XYZ=             -2.5992
 Hexadecapole moment (field-independent basis, Debye-Ang**3):
 XXXX=          -3222.1000 YYYY=          -1373.8950 ZZZZ=           -312.8456 XXXY=           -125.9897
 XXXZ=             -1.7756 YYYX=            -67.3479 YYYZ=              0.0168 ZZZX=            -42.0905
 ZZZY=              6.4963 XXYY=           -800.5349 XXZZ=           -617.9947 YYZZ=           -267.4743
 XXYZ=            -15.3915 YYXZ=              6.5074 ZZXY=             -4.8259
 N-N= 1.487112153705D+03 E-N=-5.693423937885D+03  KE= 1.146538137842D+03
  Exact polarizability:   0.000   0.000   0.000   0.000   0.000   0.000
 Approx polarizability: 203.536  -3.417 199.793 -18.622  11.016 133.149
 No NMR shielding tensors so no spin-rotation constants.
 Leave Link  601 at Thu Aug 29 20:45:58 2024, MaxMem=  8589934592 cpu:               5.5 elap:               0.3
 (Enter /share/apps/g16.b01_avx2/g16/l701.exe)
 ... and contract with generalized density number  0.
 Compute integral second derivatives.
 R6Disp: Adding Grimme-D3 dispersion energy 2nd derivatives to the Hessian.
   1 Symmetry operations used in ECPInt.
 ECPInt:  NShTT=   25651 NPrTT=   81420 LenC2=   22476 LenP2D=   50887.
 LDataN:  DoStor=T MaxTD1= 8 Len=  415
 D2PCM: PCM CHGder 2nd derivatives, FixD1E=F FixD2E=F DoIter=F DoCFld=F I1PDM=0
 GePol: Maximum number of non-zero 2nd derivatives   =     219
 Leave Link  701 at Thu Aug 29 20:46:04 2024, MaxMem=  8589934592 cpu:             136.1 elap:               5.7
 (Enter /share/apps/g16.b01_avx2/g16/l702.exe)
 L702 exits ... SP integral derivatives will be done elsewhere.
 Leave Link  702 at Thu Aug 29 20:46:04 2024, MaxMem=  8589934592 cpu:               0.3 elap:               0.0
 (Enter /share/apps/g16.b01_avx2/g16/l703.exe)
 Integral derivatives from FoFJK, PRISM(SPDF).
 Compute integral second derivatives, UseDBF=F ICtDFT=           0.
 Calling FoFJK, ICntrl=    100147 FMM=F ISym2X=0 I1Cent= 0 IOpClX= 0 NMat=1 NMatS=1 NMatT=0.
 FoFJK:  IHMeth= 1 ICntrl=  100147 DoSepK=F KAlg= 0 I1Cent=           0 FoldK=F
 IRaf=         0 NMat=       1 IRICut=       1 DoRegI=T DoRafI=F ISym2E= 0 IDoP0=0 IntGTp=1.
 FoFCou: FMM=F IPFlag=           0 FMFlag=      100000 FMFlg1=         800
         NFxFlg=           0 DoJE=F BraDBF=F KetDBF=F FulRan=T
         wScrn=  0.000000 ICntrl=    100147 IOpCl=  0 I1Cent=           0 NGrid=           0
         NMat0=    1 NMatS0=      1 NMatT0=    0 NMatD0=    1 NMtDS0=    0 NMtDT0=    0
 Symmetry not used in FoFCou.
 Leave Link  703 at Thu Aug 29 20:51:13 2024, MaxMem=  8589934592 cpu:            7423.1 elap:             309.6
 (Enter /share/apps/g16.b01_avx2/g16/l716.exe)
 Dipole        = 2.68620201D+00-2.63608739D+00-9.06808658D-01
 Polarizability= 0.00000000D+00 0.00000000D+00 0.00000000D+00
                 0.00000000D+00 0.00000000D+00 0.00000000D+00
 ***** Axes restored to original set *****
 -------------------------------------------------------------------
 Center     Atomic                   Forces (Hartrees/Bohr)
 Number     Number              X              Y              Z
 -------------------------------------------------------------------
      1        1           0.000779372   -0.000425694    0.000637199
      2        8          -0.003267409   -0.006863006   -0.001610182
[...]
 -0.31080953,-0.00224483,0.00353939,0.73502683,-0.00006607,0.00007829,0
 .00001326,-0.00020755,-0.00000445,-0.00063592,-0.00058940,-0.00009022,
 0.00181033,0.00022425,-0.00014690,-0.00009621,-0.00000416,0.00000339,-
 0.00002900,-0.00001001,-0.00006253,0.00009726,0.00001069,0.00000468,-0
 .00000968,-0.00000772,0.00001873,0.00000080,0.00002841,-0.00001042,-0.
 00003070,0.00018697,-0.00017207,-0.00025390,0.00291016,0.00021388,-0.0
 0292639,-0.00403810,0.00506001,0.00598176,-0.01328451,0.00351122,-0.00
 326305,0.00038047,-0.01135245,0.00116153,-0.04049594,0.05309151,-0.074
 03364,-0.02237015,-0.03305087,-0.06611975,0.17286924,-0.01307806,0.177
 95588,0.00152489,-0.00090692,-0.00035433,0.00107313,-0.00052176,0.0000
 6546,-0.00324775,0.00266341,0.00098932,-0.00112767,-0.00098767,0.00068
 380,-0.00023698,-0.00034295,0.00024308,-0.00021217,-0.00102922,-0.0007
 8822,-0.00024288,0.00007973,0.00040163,-0.00001039,0.00006842,0.000083
 92,0.00008478,0.00008437,-0.00001213,0.00043062,-0.00022092,-0.0003033
 3,0.00781197,-0.00233169,0.00300672,0.00163434,-0.00036924,-0.00189164
 ,-0.16378580,0.12285874,-0.04046847,-0.00419082,-0.00396080,-0.0028059
 5,-0.03218020,0.05302039,-0.01297700,0.00339283,-0.00142654,0.00190554
 ,0.00065039,-0.00807490,-0.00083638,0.19160573,-0.00355131,-0.00191716
 ,0.00085178,-0.00104628,0.00024586,0.00088373,0.00334572,-0.00046939,-
 0.00256868,-0.00082473,0.00132249,0.00030371,-0.00002416,0.00002783,0.
 00001159,-0.00009830,0.00032640,-0.00006506,0.00003358,-0.00001885,-0.
 00002934,0.00003069,-0.00006430,-0.00003194,-0.00010500,0.00000226,0.0
 0007791,-0.00025217,0.00043015,0.00045160,-0.00279617,0.00439729,0.001
 00352,0.04237654,-0.04804147,0.01353987,0.12461280,-0.24014218,0.04109
 783,-0.00718362,0.00314140,-0.00269020,0.00760641,-0.01416545,0.002324
 93,-0.00098485,0.00485547,-0.00036781,-0.00476797,-0.00302380,-0.00132
 931,-0.16500358,0.29454754,0.00075575,0.00064361,-0.00045331,-0.000588
 80,-0.00001014,-0.00058478,0.00023720,-0.00029229,0.00178014,0.0006742
 5,-0.00001890,0.00013182,0.00015215,0.00009714,-0.00007461,0.00003351,
 0.00001490,0.00014447,0.00002630,-0.00000427,-0.00004383,-0.00002638,-
 0.00000036,-0.00000646,0.00001304,-0.00000887,-0.00002930,0.00023054,-
 0.00016170,-0.00028655,0.00475765,-0.00107273,-0.00468803,-0.00379400,
 0.00007701,0.00644051,-0.04167216,0.04283675,-0.04909299,-0.00283352,-
 0.00104170,0.00440946,-0.01204315,0.01610600,0.00416184,0.00188346,-0.
 00056382,-0.00225255,-0.00107328,-0.00225886,0.00407357,0.05313091,-0.
 05620709,0.03973298,-0.00011172,-0.00002003,0.00001369,-0.00125639,0.0
 0186408,-0.00047561,0.00076738,-0.00240307,0.00183476,-0.00020322,0.00
 055233,-0.00024274,-0.00003422,0.00005314,0.00001134,0.00004291,-0.000
 00330,-0.00006471,0.00000276,-0.00000948,-0.00000604,0.00002345,-0.000
 03357,-0.00001308,-0.00000752,0.00000724,0.00000655,0.00079097,-0.0009
 9792,-0.00006565,0.00556777,0.00341952,0.00306154,0.00946764,0.0172535
 9,0.00040821,-0.00645824,0.00036277,-0.00380475,-0.10457817,-0.0939841
 7,-0.01952127,0.00277274,0.00069880,0.00167904,-0.01496636,-0.05316593
 ,-0.00637955,-0.00299061,0.00782949,-0.00249965,0.00120073,0.00081971,
 0.00024598,0.11111805,-0.00059695,0.00022757,0.00009850,-0.00031637,0.
 00064368,-0.00212289,-0.00249854,-0.00096095,0.00474177,0.00056722,-0.
 00014363,-0.00026516,-0.00003041,0.00003607,-0.00010552,-0.00006772,-0
 .00013555,0.00029532,0.00004365,0.00001463,-0.00004351,-0.00001803,0.0
 0003799,-0.00000328,0.00007631,-0.00003908,-0.00009153,0.00078233,-0.0
 0115487,-0.00065572,0.00408062,0.00736919,-0.00060483,-0.02404984,-0.0
 5675613,-0.00701682,0.00366324,0.00557322,0.00098286,-0.09099762,-0.32
 336552,-0.02363538,0.00073557,0.00521660,0.00010520,-0.01022754,-0.035
 18688,-0.00236648,0.00471497,0.00151908,0.00148789,0.00170899,-0.00589
 656,0.00053104,0.12249738,0.40157049,0.00001935,0.00001464,-0.00000752
 ,-0.00019500,-0.00070001,-0.00023883,0.00003983,-0.00003777,0.00092709
 ,0.00032981,-0.00018745,0.00004177,0.00002017,-0.00005536,-0.00002872,
 -0.00002953,-0.00005219,0.00007775,0.00000705,0.00000289,-0.00000087,-
 0.00001790,0.00002450,0.00000242,0.00001814,-0.00000155,-0.00002447,0.
 00026726,-0.00026565,-0.00020893,0.00453925,0.00095528,-0.00448944,0.0
 0003410,0.00708091,0.00747765,-0.00388090,0.00008706,0.00393783,-0.019
 38975,-0.02387798,-0.04296391,0.00182578,0.00009778,-0.00225904,-0.007
 10625,-0.01602077,0.00655377,-0.00242656,0.00261483,0.00364995,0.00028
 405,0.00039860,0.00048423,0.02486301,0.03148799,0.03045866,0.00021970,
 -0.00015541,-0.00004076,-0.00050291,-0.00006481,0.00093939,0.00210431,
 -0.00027270,-0.00238915,-0.00034118,0.00031964,0.00015315,0.00002522,-
 0.00002728,0.00005268,0.00004232,0.00010463,-0.00017105,-0.00001954,-0
 .00001192,0.00002253,0.00000891,-0.00003018,-0.00000607,-0.00005344,0.
 00002846,0.00005521,-0.00023419,0.00034774,0.00035861,-0.00373054,-0.0
 0293972,0.00022953,-0.00293944,0.00755133,-0.00223573,-0.01301254,-0.0
 5210242,-0.00533876,0.00293121,0.00114283,0.00164186,-0.10542642,-0.09
 430405,-0.01979538,-0.00717394,0.00003995,-0.00356448,0.00868262,0.016
 58566,-0.00018551,0.00371716,0.00025164,0.00276118,-0.00097765,-0.0034
 1350,-0.00054426,0.10827383,0.00047713,-0.00022650,-0.00007765,-0.0011
 5101,-0.00006098,0.00133697,0.00352866,-0.00017831,-0.00317115,-0.0006
 9878,0.00053443,0.00028522,0.00003812,-0.00003459,0.00009553,0.0000766
 9,0.00018525,-0.00032312,-0.00003940,-0.00001987,0.00004326,0.00002052
 ,-0.00005748,-0.00001160,-0.00009932,0.00005060,0.00010133,-0.00024282
 ,0.00053072,0.00049322,-0.00555935,-0.00184246,0.00043643,0.00469844,0
 .00111249,0.00160146,-0.00837511,-0.03199803,-0.00175327,0.00129985,0.
 00561557,-0.00007791,-0.09415125,-0.32482704,-0.02282724,0.00239693,0.
 00482981,0.00061004,-0.02809447,-0.05532358,-0.00736146,-0.00227376,0.
 01051701,-0.00097688,-0.00315274,-0.00903532,-0.00082556,0.12544074,0.
 39947208,0.00004937,-0.00006316,-0.00000814,0.00003498,-0.00011789,0.0
 0025370,0.00042914,-0.00000717,-0.00077744,-0.00008181,0.00010183,0.00
 004905,0.00000664,-0.00000904,0.00001557,0.00000842,0.00003097,-0.0000
 4772,-0.00000541,-0.00000328,0.00000618,0.00000209,-0.00000742,-0.0000
 0030,-0.00001515,0.00000563,0.00001689,-0.00010130,0.00009017,0.000111
 97,-0.00104521,-0.00092603,0.00055796,-0.00241547,0.00263188,0.0038708
 9,-0.00633541,-0.01542288,0.00629695,0.00170707,0.00007297,-0.00223607
 ,-0.01958078,-0.02299127,-0.04038919,-0.00362304,-0.00007745,0.0031832
 9,0.00082820,0.00662668,0.00813742,0.00278878,-0.00009884,-0.00458510,
 -0.00049374,-0.00084966,0.00078639,0.02399275,0.03068126,0.02837285,0.
 00042297,-0.00019629,-0.00008505,-0.00084791,-0.00013606,0.00121689,0.
 00312103,0.00030994,-0.00302204,-0.00069079,0.00038405,0.00037927,0.00
 004735,-0.00004491,0.00007599,0.00005494,0.00018184,-0.00029053,-0.000
 03901,-0.00001550,0.00003815,0.00001786,-0.00004244,-0.00000726,-0.000
 08696,0.00004054,0.00009510,-0.00014360,0.00041994,0.00032891,-0.00596
 448,0.00140181,0.00003268,0.00097386,-0.00863761,-0.00112519,0.0035550
 8,-0.00095085,0.00196846,-0.03059424,0.05183118,-0.01326090,-0.0054642
 6,-0.00339742,-0.00289053,-0.17096585,0.13246662,-0.04477524,0.0005092
 4,-0.00056189,-0.00222990,-0.00354180,0.00479757,-0.00136766,0.0038189
 4,-0.00195974,0.00291758,0.00138586,0.00160896,0.00016477,0.19601491,-
 0.00055936,0.00015543,0.00009876,0.00088538,0.00012003,-0.00103798,-0.
 00270704,-0.00013414,0.00236286,0.00056270,-0.00034572,-0.00026037,-0.
 00002940,0.00003379,-0.00008023,-0.00005881,-0.00012582,0.00027790,0.0
 0004049,0.00001426,-0.00004167,-0.00001737,0.00003975,0.00000667,0.000
 07407,-0.00003928,-0.00008077,0.00014970,-0.00040799,-0.00031994,0.004
 23071,0.00078147,-0.00026412,-0.00527466,-0.00184697,-0.00146701,-0.00
 143950,0.00398451,-0.00061526,0.00757764,-0.01322025,0.00301624,-0.005
 80621,0.00288549,-0.00177283,0.13267016,-0.24882953,0.04560879,0.04403
 712,-0.04664077,0.01465575,0.00493536,-0.00621338,0.00153028,0.0001908
 8,0.01087750,-0.00023647,0.00050368,-0.00579566,0.00030559,-0.17669430
 ,0.29889568,0.00013196,-0.00005506,-0.00003112,-0.00040370,0.00006767,
 0.00035763,0.00097957,-0.00010405,-0.00090230,-0.00023221,0.00018587,0
 .00010143,0.00001441,-0.00001203,0.00002430,0.00002023,0.00005471,-0.0
 0009636,-0.00001268,-0.00000544,0.00001262,0.00000660,-0.00001677,-0.0
 0000231,-0.00002814,0.00001346,0.00003121,-0.00004954,0.00014142,0.000
 12296,-0.00191740,0.00049671,0.00031063,-0.00113398,-0.00272050,0.0045
 4842,0.00200882,-0.00040008,-0.00214461,-0.01212152,0.01650301,0.00398
 551,-0.00279428,-0.00106979,0.00343053,-0.04474317,0.04543356,-0.05004
 041,-0.00328282,0.00107013,0.00691277,-0.00146632,0.00162676,0.0004913
 6,0.00291005,-0.00085337,-0.00455131,0.00017711,0.00066929,0.00078733,
 0.05759659,-0.06050391,0.04079518,0.00054019,-0.00033198,-0.00011508,-
 0.00117467,-0.00028311,0.00208831,0.00503926,0.00049578,-0.00461544,-0
 .00101625,0.00059424,0.00044631,0.00005656,-0.00003746,0.00013572,0.00
 010634,0.00028502,-0.00044595,-0.00005384,-0.00002994,0.00005431,0.000
 02686,-0.00007613,-0.00001271,-0.00013885,0.00006612,0.00014653,-0.000
 33765,0.00077686,0.00063973,-0.01034555,-0.00228620,-0.00093910,0.0040
 7032,0.00067220,0.00222068,0.00458573,-0.00018077,0.00034529,0.0036435
 0,0.00317201,-0.00060333,-0.04948498,-0.01413924,-0.01728554,-0.040579
 90,-0.00180843,-0.01486847,-0.33068987,-0.04167842,-0.08984570,-0.0044
 8469,0.00299404,-0.00154205,-0.00248218,-0.00390936,-0.00092648,0.0071
 6523,0.00455694,0.00372642,0.00859673,-0.00346980,0.00440601,0.4072747
 0,-0.00001047,-0.00008004,0.00001975,-0.00018305,0.00000158,0.00033115
 ,0.00086648,-0.00001125,-0.00076299,-0.00015820,0.00012686,0.00005752,
 0.00000827,-0.00000233,0.00001815,0.00001800,0.00005790,-0.00005974,-0
 .00000483,-0.00000556,0.00000324,0.00000493,-0.00001401,-0.00000312,-0
 .00002302,0.00000879,0.00002357,-0.00004495,0.00010353,0.00009959,-0.0
 0175043,-0.00016097,-0.00009431,0.00032616,0.00295061,0.00002346,-0.00
 284482,-0.00799496,-0.00061981,0.00608746,-0.00613644,0.00209288,0.030
 16709,0.00847658,0.00929592,-0.04609070,-0.00194971,-0.01389870,-0.041
 60674,-0.08064518,-0.01165856,0.00201163,0.00049058,0.00059708,-0.0029
 4646,-0.00142335,-0.00091027,0.00130021,0.00703086,0.00010302,-0.00039
 489,0.00541109,-0.00037022,0.05534558,0.07386359,0.00014827,-0.0000966
 4,-0.00003599,-0.00012111,-0.00007960,0.00075673,0.00143649,0.00015088
 ,-0.00186694,-0.00031806,0.00019704,0.00014620,0.00001316,-0.00000835,
 0.00003961,0.00002396,0.00008903,-0.00013852,-0.00001633,-0.00000800,0
 .00001642,0.00000970,-0.00002343,-0.00000321,-0.00004258,0.00001753,0.
 00004517,-0.00015085,0.00024831,0.00024794,-0.00373547,-0.00068136,0.0
 0093050,0.00238898,0.00002889,-0.00207572,0.00049135,0.00031355,0.0044
 8848,-0.00035964,0.00118396,0.00412639,-0.01867993,-0.00440670,0.00267
 040,-0.01396691,-0.00039097,0.00394529,-0.08985335,-0.01166240,-0.0624
 5202,-0.00172124,0.00092813,0.00016574,-0.00087750,-0.00121378,0.00032
 253,0.00394417,0.00117994,-0.00439220,0.00430764,-0.00127292,-0.004110
 86,0.11717087,0.01574401,0.05724012,0.00038750,-0.00046851,0.00002520,
 0.00223676,-0.00104806,0.00261248,0.00611482,-0.01421850,0.00046383,-0
 .00088728,-0.00383131,-0.00111380,-0.00020954,-0.00055665,0.00000502,-
 0.00028623,-0.00053351,0.00002930,0.00039493,-0.00015946,-0.00022557,0
 .00005763,0.00003644,0.00002940,0.00032660,0.00011894,-0.00012101,-0.0
 8783591,0.06660000,-0.00096183,0.00356225,-0.00026118,-0.00101457,0.00
 056150,0.00081585,-0.00035282,0.00013962,0.00004296,0.00010814,0.00052
 222,0.00137519,0.00016838,0.00000464,0.00011763,0.00004075,0.00001821,
 -0.00024944,-0.00001624,0.00009684,0.00004501,0.00000293,0.00001143,-0
 .00010658,-0.00002693,-0.00137990,-0.00088309,-0.00069361,-0.00004752,
 -0.00015052,-0.00000988,-0.00007938,0.00009151,-0.00002504,-0.00011303
 ,-0.00004342,-0.00002071,0.08561063,0.00230500,-0.00158860,-0.00044269
 ,-0.00352943,0.00437854,-0.00199596,0.02184580,-0.04126675,0.00344294,
 -0.00587605,-0.00680497,-0.00352813,-0.00039459,0.00214689,-0.00049696
 ,-0.00073101,-0.00110054,0.00152974,-0.00022899,0.00039164,0.00001509,
 0.00018889,0.00006536,-0.00010810,0.00056111,-0.00026178,-0.00066748,0
 .06554458,-0.23575242,0.00406163,-0.00364854,0.00074562,-0.00049882,0.
 00092837,0.00071129,0.00114074,-0.00011510,0.00022793,-0.00013251,-0.0
 0054537,-0.00117132,-0.00025545,0.00019438,0.00035812,0.00000418,0.000
 28707,-0.00014632,0.00005642,0.00034079,0.00002987,0.00012395,-0.00015
 699,-0.00020153,0.00011740,0.00095843,0.00070470,0.00033448,-0.0001857
 5,-0.00031960,-0.00004049,-0.00029584,0.00028609,-0.00010961,-0.000506
 92,-0.00006551,-0.00015966,-0.10006595,0.32925939,0.00055170,-0.000510
 51,0.00014670,0.00128982,-0.00099324,0.00287889,0.00525135,-0.01409046
 ,-0.00016930,-0.00177693,-0.00232098,-0.00046141,0.00007212,-0.0005180
 7,-0.00011687,-0.00014232,0.00010009,0.00035907,-0.00007188,0.00013074
 ,0.00003165,0.00000233,0.00001001,0.00004186,0.00011432,-0.00002566,-0
 .00002593,-0.00057461,0.00608913,-0.06623042,-0.00051900,0.00074132,0.
 00044792,-0.00015044,-0.00011157,0.00004892,0.00002440,0.00002868,-0.0
 0000517,0.00012394,0.00014057,-0.00000581,0.00003425,0.00006267,-0.000
 00726,0.00003263,-0.00007447,0.00000502,0.00004410,0.00001921,0.000015
 53,-0.00003608,-0.00002883,0.00001801,-0.00057668,0.00002654,-0.000005
 45,-0.00002870,-0.00005976,-0.00000383,-0.00003536,0.00004276,-0.00001
 576,-0.00006428,-0.00001304,-0.00002076,0.00409085,-0.00288970,0.04907
 189,-0.00012816,0.00030804,0.00002820,0.00255141,0.00027390,-0.0006477
 5,-0.01674449,0.00080774,0.01517648,0.00075765,-0.00042712,-0.00027661
 ,-0.00011150,-0.00019720,0.00002946,0.00005091,-0.00013878,-0.00005420
 ,0.00045648,0.00024194,0.00002651,-0.00002596,-0.00005291,-0.00000290,
 0.00018751,0.00013198,-0.00006625,-0.23928548,-0.00091853,0.11840877,-
 0.00481504,-0.00195085,-0.00145974,0.00059722,-0.00079554,0.00107313,-
 0.00054749,0.00033822,-0.00017532,-0.00007240,-0.00023694,-0.00007632,
 0.00012587,0.00009076,-0.00000464,0.00012538,-0.00012999,0.00002932,0.
 00017495,0.00002745,0.00007067,0.00015561,-0.00017220,0.00006178,-0.00
 005723,0.00018239,0.00002276,-0.00013070,-0.00019376,-0.00004221,-0.00
 013771,0.00013330,-0.00004990,-0.00026029,-0.00004177,-0.00008549,-0.0
 0788329,0.01208575,0.00465327,0.25822801,-0.00007374,0.00031613,0.0000
 6034,0.00160243,0.00004033,-0.00049191,-0.01270874,0.00382661,0.011958
 63,0.00022871,0.00049437,0.00002900,-0.00008601,-0.00020355,0.00019922
 ,-0.00064164,-0.00071629,-0.00020858,0.00050605,-0.00060099,-0.0002557
 9,0.00004041,0.00002296,-0.00002398,0.00025411,0.00009708,-0.00007128,
 -0.00768794,-0.04622990,0.00263165,-0.00572876,-0.00199126,-0.00120214
 ,0.00008932,-0.00085708,0.00088710,-0.00055815,0.00035577,-0.00017837,
 -0.00017585,-0.00040629,-0.00007479,0.00011663,0.00006654,-0.00001495,
 0.00013250,-0.00007748,0.00003065,0.00016159,0.00000625,0.00007177,0.0
 0017739,-0.00016445,0.00006946,0.00014654,0.00028893,0.00004981,-0.000
 12566,-0.00017710,-0.00004299,-0.00013040,0.00012212,-0.00004513,-0.00
 023791,-0.00003543,-0.00008175,0.03894899,-0.02067639,-0.01952510,-0.0
 0826947,0.06350752,-0.00015874,0.00018864,-0.00008525,0.00130584,-0.00
 002776,0.00073977,-0.01225428,-0.00048243,0.00605948,0.00084875,0.0011
 3840,0.00009221,0.00021818,0.00002338,-0.00018789,0.00001943,-0.000451
 73,-0.00005634,-0.00003998,-0.00042600,0.00039844,-0.00006417,0.000001
 17,-0.00003965,-0.00001811,-0.00006923,-0.00010927,0.12291249,-0.00002
 410,-0.13398376,-0.00257319,-0.00126505,0.00044910,-0.00019354,-0.0002
 4466,0.00072830,-0.00012769,0.00010940,-0.00008105,-0.00003336,-0.0001
 1237,-0.00003015,0.00003104,0.00005148,-0.00004561,0.00004831,-0.00005
 168,-0.00000497,0.00004692,-0.00000212,0.00003457,0.00006380,-0.000061
 60,0.00005351,0.00004007,0.00009384,0.00004352,-0.00002964,-0.00005011
 ,-0.00001081,-0.00002823,0.00003370,-0.00001070,-0.00008764,-0.0000136
 3,-0.00003571,-0.00192907,-0.00302958,0.00587097,-0.13278278,0.0040177
 4,0.13254406,0.00001632,0.00006600,0.00005117,-0.00419833,-0.00301601,
 -0.00409524,-0.00095086,0.00765462,-0.02159343,0.00043576,-0.00051077,
 0.00119669,0.00025492,-0.00040409,0.00007029,-0.00024242,0.00026184,0.
 00013519,0.00011133,-0.00001711,-0.00002821,-0.00004583,0.00003031,0.0
 0001467,0.00004673,0.00005295,0.00005964,-0.05914920,0.00579956,-0.033
 83274,-0.00018863,-0.00007690,0.00021777,0.00035031,0.00017634,0.00026
 772,0.00019474,-0.00008929,-0.00001363,0.00017216,0.00016324,-0.000057
 19,-0.00001935,0.00000124,-0.00000966,-0.00002579,-0.00000439,0.000001
 33,-0.00004066,-0.00000011,-0.00001307,-0.00003245,0.00004821,0.000004
 21,-0.00006994,-0.00008398,0.00002209,0.00003366,0.00003933,0.00001081
 ,0.00003722,-0.00002627,0.00000935,0.00005634,0.00000794,0.00001459,-0
 .00132348,0.01104035,-0.01230878,0.00678876,-0.00598041,0.02478560,0.0
 5778870,0.00001369,0.00019464,0.00003415,-0.00504058,-0.00275718,-0.00
 320683,-0.00031508,0.00905991,-0.01764558,0.00060605,-0.00021399,0.000
 28753,0.00012664,-0.00128743,-0.00102138,0.00003293,-0.00002503,0.0000
 5891,0.00000482,-0.00003088,-0.00000900,-0.00008030,0.00008808,0.00003
 833,-0.00001357,0.00000598,0.00001497,0.00604715,-0.05977415,0.0536772
 6,-0.00010783,-0.00009679,0.00060314,0.00030596,0.00019669,0.00011483,
 0.00012604,-0.00002915,-0.00002705,0.00005112,0.00000231,-0.00003047,-
 0.00001013,0.00001478,0.00000095,0.00000037,-0.00000217,0.00000220,-0.
 00001267,-0.00000157,-0.00000379,-0.00000149,0.00001424,-0.00000308,0.
 00006277,0.00001818,0.00002227,0.00001689,0.00001769,0.00000755,0.0000
 1569,-0.00000769,0.00000338,0.00001686,0.00000280,0.00000429,0.0143836
 7,-0.02994971,0.03376967,-0.00109640,0.00299161,0.00065431,-0.01513262
 ,0.08156882,0.00010079,-0.00002524,0.00017292,-0.00350184,-0.00267016,
 -0.00070403,0.00245595,0.00740873,-0.01285363,0.00034243,-0.00089104,0
 .00056044,0.00021995,-0.00169902,-0.00038082,0.00016706,-0.00005029,0.
 00002189,-0.00008390,0.00005262,-0.00003189,-0.00006068,0.00008720,0.0
 0009620,-0.00002069,-0.00000554,0.00002184,-0.04089217,0.05910881,-0.3
 0070923,0.00109370,0.00011569,0.00140908,-0.00015746,0.00013069,0.0002
 5831,0.00010184,0.00008762,0.00002053,0.00009056,0.00000233,0.00001548
 ,-0.00001115,0.00006155,-0.00003006,0.00003194,-0.00004200,0.00001095,
 0.00002479,-0.00001207,0.00000564,0.00001409,-0.00002127,0.00000990,-0
 .00005327,-0.00002304,0.00001494,0.00000131,-0.00001823,0.00000435,-0.
 00000414,0.00001417,-0.00000614,-0.00002842,-0.00000492,-0.00000961,-0
 .00106523,0.00352858,0.00813155,-0.00385625,0.00221139,-0.01233278,0.0
 4509081,-0.06734654,0.31630416\\-0.00000103,-0.00000009,0.00000347,0.0
 0000499,-0.00000286,-0.00000065,-0.00000024,-0.00000206,0.00000357,0.0
 0000130,-0.00000215,0.00000689,-0.00000170,-0.00000390,0.00000372,-0.0
 0000281,-0.00000389,0.00000641,0.00000001,-0.00000712,0.00000736,0.000
 00198,-0.00000535,0.00000425,-0.00000251,-0.00000627,0.00000691,0.0000
 0285,-0.00000524,0.00000184,-0.00000207,0.00000070,-0.00000354,-0.0000
 0038,0.00000180,-0.00000094,-0.00000331,0.00000384,-0.00000179,0.00000
 174,0.00000400,-0.00000471,-0.00000209,0.00000493,-0.00000371,0.000002
 02,0.00000503,-0.00000649,0.,0.00000627,-0.00000601,-0.00000769,0.0000
 0038,0.00000141,0.00000337,0.00000146,-0.00000408,-0.00000412,0.000005
 62,-0.00000329,0.00000420,0.00000644,-0.00000871,0.00000009,0.00000778
 ,-0.00000809,0.00000402,-0.00000203,0.00000010,0.00000206,-0.00000511,
 0.00000358,-0.00000066,-0.00000217,0.00000251\\\@


 A SOLDIER'S LIFE IS A LIFE OF HONOR, BUT A DOG WOULD NOT LEAD IT.
 -- PRINCE RUPERT, FOUNDER OF THE HUDSON'S BAY COMPANY
 Job cpu time:       0 days  7 hours 36 minutes 26.5 seconds.
 Elapsed time:       0 days  0 hours 19 minutes  2.6 seconds.
 File lengths (MBytes):  RWF=    949 Int=      0 D2E=      0 Chk=     40 Scr=      1
 Normal termination of Gaussian 16 at Thu Aug 29 21:32:37 2024.
