 Entering Gaussian System, Link 0=g16
 Input=input.com
 Output=input.log
 Initial command:
 /share/apps/g16.b01_avx2/g16/l1.exe "/scratch/Gau-324035.inp" -scrdir="/scratch/"
 Entering Link 1 = /share/apps/g16.b01_avx2/g16/l1.exe PID=    324038.
  
 Copyright (c) 1988-2017, Gaussian, Inc.  All Rights Reserved.
  
 This is part of the Gaussian(R) 16 program.  It is based on
 the Gaussian(R) 09 system (copyright 2009, Gaussian, Inc.),
 the Gaussian(R) 03 system (copyright 2003, Gaussian, Inc.),
 the Gaussian(R) 98 system (copyright 1998, Gaussian, Inc.),
 the Gaussian(R) 94 system (copyright 1995, Gaussian, Inc.),
 the Gaussian 92(TM) system (copyright 1992, Gaussian, Inc.),
 the Gaussian 90(TM) system (copyright 1990, Gaussian, Inc.),
 the Gaussian 88(TM) system (copyright 1988, Gaussian, Inc.),
 the Gaussian 86(TM) system (copyright 1986, Carnegie Mellon
 University), and the Gaussian 82(TM) system (copyright 1983,
 Carnegie Mellon University). Gaussian is a federally registered
 trademark of Gaussian, Inc.
  
 This software contains proprietary and confidential information,
 including trade secrets, belonging to Gaussian, Inc.
  
 This software is provided under written license and may be
 used, copied, transmitted, or stored only in accord with that
 written license.
  
 The following legend is applicable only to US Government
 contracts under FAR:
  
                    RESTRICTED RIGHTS LEGEND
  
 Use, reproduction and disclosure by the US Government is
 subject to restrictions as set forth in subparagraphs (a)
 and (c) of the Commercial Computer Software - Restricted
 Rights clause in FAR 52.227-19.
  
 Gaussian, Inc.
 340 Quinnipiac St., Bldg. 40, Wallingford CT 06492
  
  
 ---------------------------------------------------------------
 Warning -- This program may not be used in any manner that
 competes with the business of Gaussian, Inc. or will provide
 assistance to any competitor of Gaussian, Inc.  The licensee
 of this program is prohibited from giving any competitor of
 Gaussian, Inc. access to this program.  By using this program,
 the user acknowledges that Gaussian, Inc. is engaged in the
 business of creating and licensing software in the field of
 computational chemistry and represents and warrants to the
 licensee that it is not a competitor of Gaussian, Inc. and that
 it will not use this program in any manner prohibited above.
 ---------------------------------------------------------------
  

 Cite this work as:
 Gaussian 16, Revision B.01,
 M. J. Frisch, G. W. Trucks, H. B. Schlegel, G. E. Scuseria, 
 M. A. Robb, J. R. Cheeseman, G. Scalmani, V. Barone, 
 G. A. Petersson, H. Nakatsuji, X. Li, M. Caricato, A. V. Marenich, 
 J. Bloino, B. G. Janesko, R. Gomperts, B. Mennucci, H. P. Hratchian, 
 J. V. Ortiz, A. F. Izmaylov, J. L. Sonnenberg, D. Williams-Young, 
 F. Ding, F. Lipparini, F. Egidi, J. Goings, B. Peng, A. Petrone, 
 T. Henderson, D. Ranasinghe, V. G. Zakrzewski, J. Gao, N. Rega, 
 G. Zheng, W. Liang, M. Hada, M. Ehara, K. Toyota, R. Fukuda, 
 J. Hasegawa, M. Ishida, T. Nakajima, Y. Honda, O. Kitao, H. Nakai, 
 T. Vreven, K. Throssell, J. A. Montgomery, Jr., J. E. Peralta, 
 F. Ogliaro, M. J. Bearpark, J. J. Heyd, E. N. Brothers, K. N. Kudin, 
 V. N. Staroverov, T. A. Keith, R. Kobayashi, J. Normand, 
 K. Raghavachari, A. P. Rendell, J. C. Burant, S. S. Iyengar, 
 J. Tomasi, M. Cossi, J. M. Millam, M. Klene, C. Adamo, R. Cammi, 
 J. W. Ochterski, R. L. Martin, K. Morokuma, O. Farkas, 
 J. B. Foresman, and D. J. Fox, Gaussian, Inc., Wallingford CT, 2016.
 
 ******************************************
 Gaussian 16:  ES64L-G16RevB.01 20-Dec-2017
                28-Aug-2024 
 ******************************************
 %nproc=24
 Will use up to   24 processors via shared memory.
 %mem=64GB
 ----------------------------------------------------------------------
 #P PBE1PBE/def2TZVP opt freq EmpiricalDispersion=GD3 Int=(grid=99590) 
 scrf=(iefpcm, solvent=water)
 ----------------------------------------------------------------------
 1/18=20,19=15,26=6,38=1/1,3;
 2/9=110,12=2,17=6,18=5,40=1/2;
 3/5=44,7=101,11=2,25=1,30=1,70=2201,71=1,72=1,74=-13,75=99590,124=31/1,2,3;
 4//1;
 5/5=2,38=5,53=1/2;
 6/7=2,8=2,9=2,10=2,28=1/1;
 7//1,2,3,16;
 1/18=20,19=15,26=6/3(2);
 2/9=110/2;
 99//99;
 2/9=110/2;
 3/5=44,7=101,11=2,25=1,30=1,70=2205,71=1,72=1,74=-13,75=99590,124=31/1,2,3;
 4/5=5,16=3,69=1/1;
 5/5=2,38=5,53=1/2;
 7//1,2,3,16;
 1/18=20,19=15,26=6/3(-5);
 2/9=110/2;
 6/7=2,8=2,9=2,10=2,19=2,28=1/1;
 99/9=1/99;
 Leave Link    1 at Wed Aug 28 18:24:43 2024, MaxMem=  8589934592 cpu:               1.0 elap:               0.0
 (Enter /share/apps/g16.b01_avx2/g16/l101.exe)
 -------------------
 pfp-cf3_ester inter
 -------------------
 Symbolic Z-matrix:
 Charge =  0 Multiplicity = 1
 H                    -2.38383   1.6242    0.15024 
 O                    -1.82159  -0.54909   1.31775 
 C                    -2.28509  -0.50216   0.17075 
 N                    -3.08941   0.92129  -0.05831 
 H                    -3.34124   1.03395  -1.03733 
 C                    -4.24972   1.08753   0.82714 
 H                    -5.04366   0.41513   0.51086 
 H                    -3.93389   0.84095   1.83915 
 H                    -4.60674   2.11529   0.78855 
 C                    -3.18374  -1.59725  -0.36513 
 O                    -1.25518  -0.27146  -0.96263 
 C                     0.01051  -0.12482  -0.55805 
 C                     0.58541   1.13588  -0.42547 
 C                     0.82232  -1.2224   -0.28247 
 C                     1.90823   1.3055   -0.05907 
 C                     2.14596  -1.07126   0.08962 
 C                     2.69328   0.19587   0.201 
 F                    -0.16252   2.21749  -0.64948 
 F                     0.32385  -2.44952  -0.38922 
 F                     2.42537   2.52424   0.05163 
 F                     2.89816  -2.13758   0.34052 
 F                     3.96377   0.34454   0.55525 
 F                    -3.6357   -1.33826  -1.61059 
 F                    -4.22881  -1.78189   0.46928 
 F                    -2.45363  -2.73238  -0.39565 
 
 ITRead=  0  0  0  0  0  0  0  0  0  0  0  0  0  0  0  0  0  0  0  0
 ITRead=  0  0  0  0  0
 MicOpt= -1 -1 -1 -1 -1 -1 -1 -1 -1 -1 -1 -1 -1 -1 -1 -1 -1 -1 -1 -1
 MicOpt= -1 -1 -1 -1 -1
 NAtoms=     25 NQM=       25 NQMF=       0 NMMI=      0 NMMIF=      0
                NMic=       0 NMicF=      0.
                    Isotopes and Nuclear Properties:
 (Nuclear quadrupole moments (NQMom) in fm**2, nuclear magnetic moments (NMagM)
  in nuclear magnetons)

  Atom         1           2           3           4           5           6           7           8           9          10
 IAtWgt=           1          16          12          14           1          12           1           1           1          12
 AtmWgt=   1.0078250  15.9949146  12.0000000  14.0030740   1.0078250  12.0000000   1.0078250   1.0078250   1.0078250  12.0000000
 NucSpn=           1           0           0           2           1           0           1           1           1           0
 AtZEff=  -0.0000000  -0.0000000  -0.0000000  -0.0000000  -0.0000000  -0.0000000  -0.0000000  -0.0000000  -0.0000000  -0.0000000
 NQMom=    0.0000000   0.0000000   0.0000000   2.0440000   0.0000000   0.0000000   0.0000000   0.0000000   0.0000000   0.0000000
 NMagM=    2.7928460   0.0000000   0.0000000   0.4037610   2.7928460   0.0000000   2.7928460   2.7928460   2.7928460   0.0000000
 AtZNuc=   1.0000000   8.0000000   6.0000000   7.0000000   1.0000000   6.0000000   1.0000000   1.0000000   1.0000000   6.0000000

  Atom        11          12          13          14          15          16          17          18          19          20
 IAtWgt=          16          12          12          12          12          12          12          19          19          19
 AtmWgt=  15.9949146  12.0000000  12.0000000  12.0000000  12.0000000  12.0000000  12.0000000  18.9984032  18.9984032  18.9984032
 NucSpn=           0           0           0           0           0           0           0           1           1           1
 AtZEff=  -0.0000000  -0.0000000  -0.0000000  -0.0000000  -0.0000000  -0.0000000  -0.0000000  -0.0000000  -0.0000000  -0.0000000
 NQMom=    0.0000000   0.0000000   0.0000000   0.0000000   0.0000000   0.0000000   0.0000000   0.0000000   0.0000000   0.0000000
 NMagM=    0.0000000   0.0000000   0.0000000   0.0000000   0.0000000   0.0000000   0.0000000   2.6288670   2.6288670   2.6288670
 AtZNuc=   8.0000000   6.0000000   6.0000000   6.0000000   6.0000000   6.0000000   6.0000000   9.0000000   9.0000000   9.0000000

  Atom        21          22          23          24          25
 IAtWgt=          19          19          19          19          19
 AtmWgt=  18.9984032  18.9984032  18.9984032  18.9984032  18.9984032
 NucSpn=           1           1           1           1           1
 AtZEff=  -0.0000000  -0.0000000  -0.0000000  -0.0000000  -0.0000000
 NQMom=    0.0000000   0.0000000   0.0000000   0.0000000   0.0000000
 NMagM=    2.6288670   2.6288670   2.6288670   2.6288670   2.6288670
 AtZNuc=   9.0000000   9.0000000   9.0000000   9.0000000   9.0000000
 Leave Link  101 at Wed Aug 28 18:24:43 2024, MaxMem=  8589934592 cpu:               6.9 elap:               0.3
 (Enter /share/apps/g16.b01_avx2/g16/l103.exe)

 GradGradGradGradGradGradGradGradGradGradGradGradGradGradGradGradGradGrad
 Berny optimization.
 Initialization pass.
                           ----------------------------
                           !    Initial Parameters    !
                           ! (Angstroms and Degrees)  !
 --------------------------                            --------------------------
 ! Name  Definition              Value          Derivative Info.                !
 --------------------------------------------------------------------------------
 ! R1    R(1,4)                  1.0176         estimate D2E/DX2                !
 ! R2    R(2,3)                  1.238          estimate D2E/DX2                !
 ! R3    R(3,4)                  1.6509         estimate D2E/DX2                !
 ! R4    R(3,10)                 1.5146         estimate D2E/DX2                !
 ! R5    R(3,11)                 1.5487         estimate D2E/DX2                !
 ! R6    R(4,5)                  1.0171         estimate D2E/DX2                !
 ! R7    R(4,6)                  1.469          estimate D2E/DX2                !
 ! R8    R(6,7)                  1.0874         estimate D2E/DX2                !
 ! R9    R(6,8)                  1.0884         estimate D2E/DX2                !
 ! R10   R(6,9)                  1.0887         estimate D2E/DX2                !
 ! R11   R(10,23)                1.35           estimate D2E/DX2                !
 ! R12   R(10,24)                1.35           estimate D2E/DX2                !
 ! R13   R(10,25)                1.35           estimate D2E/DX2                !
 ! R14   R(11,12)                1.3368         estimate D2E/DX2                !
 ! R15   R(12,13)                1.3919         estimate D2E/DX2                !
 ! R16   R(12,14)                1.3927         estimate D2E/DX2                !
 ! R17   R(13,15)                1.3831         estimate D2E/DX2                !
 ! R18   R(13,18)                1.334          estimate D2E/DX2                !
 ! R19   R(14,16)                1.3832         estimate D2E/DX2                !
 ! R20   R(14,19)                1.3288         estimate D2E/DX2                !
 ! R21   R(15,17)                1.3839         estimate D2E/DX2                !
 ! R22   R(15,20)                1.3285         estimate D2E/DX2                !
 ! R23   R(16,17)                1.3848         estimate D2E/DX2                !
 ! R24   R(16,21)                1.3288         estimate D2E/DX2                !
 ! R25   R(17,22)                1.3273         estimate D2E/DX2                !
 ! A1    A(2,3,4)              110.0987         estimate D2E/DX2                !
 ! A2    A(2,3,10)             121.5026         estimate D2E/DX2                !
 ! A3    A(2,3,11)             115.7658         estimate D2E/DX2                !
 ! A4    A(4,3,10)             106.5739         estimate D2E/DX2                !
 ! A5    A(4,3,11)              95.3945         estimate D2E/DX2                !
 ! A6    A(10,3,11)            104.0841         estimate D2E/DX2                !
 ! A7    A(1,4,3)              103.2582         estimate D2E/DX2                !
 ! A8    A(1,4,5)              107.004          estimate D2E/DX2                !
 ! A9    A(1,4,6)              110.2424         estimate D2E/DX2                !
 ! A10   A(3,4,5)              110.4667         estimate D2E/DX2                !
 ! A11   A(3,4,6)              113.4997         estimate D2E/DX2                !
 ! A12   A(5,4,6)              111.8433         estimate D2E/DX2                !
 ! A13   A(4,6,7)              109.3539         estimate D2E/DX2                !
 ! A14   A(4,6,8)              107.794          estimate D2E/DX2                !
 ! A15   A(4,6,9)              110.1501         estimate D2E/DX2                !
 ! A16   A(7,6,8)              110.0113         estimate D2E/DX2                !
 ! A17   A(7,6,9)              109.5119         estimate D2E/DX2                !
 ! A18   A(8,6,9)              109.997          estimate D2E/DX2                !
 ! A19   A(3,10,23)            112.7272         estimate D2E/DX2                !
 ! A20   A(3,10,24)            109.847          estimate D2E/DX2                !
 ! A21   A(3,10,25)            107.1613         estimate D2E/DX2                !
 ! A22   A(23,10,24)           109.7118         estimate D2E/DX2                !
 ! A23   A(23,10,25)           108.7547         estimate D2E/DX2                !
 ! A24   A(24,10,25)           108.5199         estimate D2E/DX2                !
 ! A25   A(3,11,12)            115.1181         estimate D2E/DX2                !
 ! A26   A(11,12,13)           121.2798         estimate D2E/DX2                !
 ! A27   A(11,12,14)           121.6893         estimate D2E/DX2                !
 ! A28   A(13,12,14)           117.0125         estimate D2E/DX2                !
 ! A29   A(12,13,15)           122.0963         estimate D2E/DX2                !
 ! A30   A(12,13,18)           119.1312         estimate D2E/DX2                !
 ! A31   A(15,13,18)           118.771          estimate D2E/DX2                !
 ! A32   A(12,14,16)           121.662          estimate D2E/DX2                !
 ! A33   A(12,14,19)           119.5526         estimate D2E/DX2                !
 ! A34   A(16,14,19)           118.7824         estimate D2E/DX2                !
 ! A35   A(13,15,17)           119.6047         estimate D2E/DX2                !
 ! A36   A(13,15,20)           120.4557         estimate D2E/DX2                !
 ! A37   A(17,15,20)           119.9384         estimate D2E/DX2                !
 ! A38   A(14,16,17)           119.9891         estimate D2E/DX2                !
 ! A39   A(14,16,21)           120.317          estimate D2E/DX2                !
 ! A40   A(17,16,21)           119.6939         estimate D2E/DX2                !
 ! A41   A(15,17,16)           119.6281         estimate D2E/DX2                !
 ! A42   A(15,17,22)           120.2209         estimate D2E/DX2                !
 ! A43   A(16,17,22)           120.1511         estimate D2E/DX2                !
 ! D1    D(2,3,4,1)             56.6794         estimate D2E/DX2                !
 ! D2    D(2,3,4,5)            170.7981         estimate D2E/DX2                !
 ! D3    D(2,3,4,6)            -62.6653         estimate D2E/DX2                !
 ! D4    D(10,3,4,1)          -169.7342         estimate D2E/DX2                !
 ! D5    D(10,3,4,5)           -55.6155         estimate D2E/DX2                !
 ! D6    D(10,3,4,6)            70.9211         estimate D2E/DX2                !
 ! D7    D(11,3,4,1)           -63.2872         estimate D2E/DX2                !
 ! D8    D(11,3,4,5)            50.8315         estimate D2E/DX2                !
 ! D9    D(11,3,4,6)           177.3681         estimate D2E/DX2                !
 ! D10   D(2,3,10,23)          177.2075         estimate D2E/DX2                !
 ! D11   D(2,3,10,24)           54.5263         estimate D2E/DX2                !
 ! D12   D(2,3,10,25)          -63.177          estimate D2E/DX2                !
 ! D13   D(4,3,10,23)           50.1289         estimate D2E/DX2                !
 ! D14   D(4,3,10,24)          -72.5523         estimate D2E/DX2                !
 ! D15   D(4,3,10,25)          169.7445         estimate D2E/DX2                !
 ! D16   D(11,3,10,23)         -49.9961         estimate D2E/DX2                !
 ! D17   D(11,3,10,24)        -172.6774         estimate D2E/DX2                !
 ! D18   D(11,3,10,25)          69.6194         estimate D2E/DX2                !
 ! D19   D(2,3,11,12)           -1.2473         estimate D2E/DX2                !
 ! D20   D(4,3,11,12)          114.1475         estimate D2E/DX2                !
 ! D21   D(10,3,11,12)        -137.2444         estimate D2E/DX2                !
 ! D22   D(1,4,6,7)            172.859          estimate D2E/DX2                !
 ! D23   D(1,4,6,8)            -67.5596         estimate D2E/DX2                !
 ! D24   D(1,4,6,9)             52.4628         estimate D2E/DX2                !
 ! D25   D(3,4,6,7)            -71.8709         estimate D2E/DX2                !
 ! D26   D(3,4,6,8)             47.7105         estimate D2E/DX2                !
 ! D27   D(3,4,6,9)            167.7328         estimate D2E/DX2                !
 ! D28   D(5,4,6,7)             53.937          estimate D2E/DX2                !
 ! D29   D(5,4,6,8)            173.5184         estimate D2E/DX2                !
 ! D30   D(5,4,6,9)            -66.4592         estimate D2E/DX2                !
 ! D31   D(3,11,12,13)         -98.8821         estimate D2E/DX2                !
 ! D32   D(3,11,12,14)          82.7259         estimate D2E/DX2                !
 ! D33   D(11,12,13,15)       -177.409          estimate D2E/DX2                !
 ! D34   D(11,12,13,18)          3.0457         estimate D2E/DX2                !
 ! D35   D(14,12,13,15)          1.0552         estimate D2E/DX2                !
 ! D36   D(14,12,13,18)       -178.4901         estimate D2E/DX2                !
 ! D37   D(11,12,14,16)        177.6349         estimate D2E/DX2                !
 ! D38   D(11,12,14,19)         -1.7371         estimate D2E/DX2                !
 ! D39   D(13,12,14,16)         -0.8226         estimate D2E/DX2                !
 ! D40   D(13,12,14,19)        179.8054         estimate D2E/DX2                !
 ! D41   D(12,13,15,17)         -0.7078         estimate D2E/DX2                !
 ! D42   D(12,13,15,20)        179.6795         estimate D2E/DX2                !
 ! D43   D(18,13,15,17)        178.8391         estimate D2E/DX2                !
 ! D44   D(18,13,15,20)         -0.7736         estimate D2E/DX2                !
 ! D45   D(12,14,16,17)          0.2505         estimate D2E/DX2                !
 ! D46   D(12,14,16,21)       -179.6925         estimate D2E/DX2                !
 ! D47   D(19,14,16,17)        179.6272         estimate D2E/DX2                !
 ! D48   D(19,14,16,21)         -0.3158         estimate D2E/DX2                !
 ! D49   D(13,15,17,16)          0.0882         estimate D2E/DX2                !
 ! D50   D(13,15,17,22)       -179.9114         estimate D2E/DX2                !
 ! D51   D(20,15,17,16)        179.7029         estimate D2E/DX2                !
 ! D52   D(20,15,17,22)         -0.2967         estimate D2E/DX2                !
 ! D53   D(14,16,17,15)          0.1335         estimate D2E/DX2                !
 ! D54   D(14,16,17,22)       -179.8669         estimate D2E/DX2                !
 ! D55   D(21,16,17,15)       -179.9232         estimate D2E/DX2                !
 ! D56   D(21,16,17,22)          0.0764         estimate D2E/DX2                !
 --------------------------------------------------------------------------------
 Trust Radius=3.00D-01 FncErr=5.00D-06 GrdErr=5.00D-06 EigMax=2.50D+02 EigMin=1.00D-04
 Number of steps in this run=    134 maximum allowed number of steps=    150.
 GradGradGradGradGradGradGradGradGradGradGradGradGradGradGradGradGradGrad

 Leave Link  103 at Wed Aug 28 18:24:43 2024, MaxMem=  8589934592 cpu:               0.2 elap:               0.0
 (Enter /share/apps/g16.b01_avx2/g16/l202.exe)
                          Input orientation:                          
 ---------------------------------------------------------------------
 Center     Atomic      Atomic             Coordinates (Angstroms)
 Number     Number       Type             X           Y           Z
 ---------------------------------------------------------------------
      1          1           0       -2.383829    1.624202    0.150237
      2          8           0       -1.821586   -0.549093    1.317749
      3          6           0       -2.285094   -0.502158    0.170750
      4          7           0       -3.089411    0.921294   -0.058314
      5          1           0       -3.341241    1.033951   -1.037329
      6          6           0       -4.249723    1.087525    0.827140
      7          1           0       -5.043664    0.415126    0.510861
      8          1           0       -3.933886    0.840950    1.839147
      9          1           0       -4.606738    2.115293    0.788554
     10          6           0       -3.183739   -1.597254   -0.365134
     11          8           0       -1.255180   -0.271461   -0.962627
     12          6           0        0.010505   -0.124822   -0.558054
     13          6           0        0.585408    1.135881   -0.425472
     14          6           0        0.822320   -1.222397   -0.282473
     15          6           0        1.908228    1.305495   -0.059071
     16          6           0        2.145960   -1.071257    0.089620
     17          6           0        2.693277    0.195871    0.200995
     18          9           0       -0.162520    2.217487   -0.649477
     19          9           0        0.323848   -2.449521   -0.389216
     20          9           0        2.425365    2.524237    0.051633
     21          9           0        2.898159   -2.137581    0.340520
     22          9           0        3.963765    0.344539    0.555246
     23          9           0       -3.635701   -1.338265   -1.610588
     24          9           0       -4.228806   -1.781892    0.469279
     25          9           0       -2.453629   -2.732379   -0.395646
 ---------------------------------------------------------------------
                    Distance matrix (angstroms):
                    1          2          3          4          5
     1  H    0.000000
     2  O    2.530299   0.000000
     3  C    2.128750   1.238002   0.000000
     4  N    1.017555   2.379699   1.650943   0.000000
     5  H    1.635649   3.218971   2.221381   1.017143   0.000000
     6  C    2.056157   2.969018   2.611074   1.469008   2.074718
     7  H    2.943915   3.458695   2.926909   2.097444   2.382872
     8  H    2.422515   2.581838   2.702962   2.078449   2.943228
     9  H    2.364306   3.890510   3.552853   2.108341   2.470755
    10  C    3.359054   2.405452   1.514586   2.538921   2.720274
    11  O    2.471002   2.366011   1.548705   2.367456   2.461977
    12  C    3.048540   2.656163   2.437891   3.309619   3.578639
    13  C    3.063701   3.416369   3.358338   3.699344   3.975340
    14  C    4.309264   3.162956   3.221828   4.466240   4.795431
    15  C    4.308960   4.387100   4.572130   5.012385   5.346742
    16  C    5.271448   4.185974   4.468187   5.603682   5.984253
    17  C    5.274439   4.710212   5.027160   5.833778   6.217011
    18  F    2.434285   3.778418   3.546063   3.255193   3.414008
    19  F    4.921153   3.335902   3.303387   4.808558   5.097794
    20  F    4.893683   5.393051   5.600150   5.744064   6.054794
    21  F    6.487420   5.074866   5.437788   6.735487   7.133526
    22  F    6.487952   5.903412   6.317671   7.103266   7.508309
    23  F    3.666592   3.533973   2.386709   2.795280   2.458199
    24  F    3.886798   2.834502   2.346242   2.980568   3.314605
    25  F    4.391202   2.846390   2.307183   3.723887   3.922353
                    6          7          8          9         10
     6  C    0.000000
     7  H    1.087426   0.000000
     8  H    1.088444   1.782492   0.000000
     9  H    1.088694   1.777241   1.783375   0.000000
    10  C    3.125040   2.876867   3.371411   4.139919   0.000000
    11  O    3.743981   4.122521   4.032724   4.471708   2.415381
    12  C    4.640915   5.194107   4.715666   5.305695   3.522566
    13  C    4.994984   5.751753   5.063546   5.421392   4.656193
    14  C    5.682658   6.141712   5.601800   6.462348   4.024408
    15  C    6.225210   7.031812   6.160303   6.619594   5.869221
    16  C    6.790364   7.353739   6.609229   7.499436   5.374864
    17  C    7.027969   7.746247   6.857037   7.570973   6.170504
    18  F    4.490261   5.331084   4.723484   4.672200   4.874512
    19  F    5.908280   6.150327   5.824182   6.821682   3.609724
    20  F    6.871852   7.774679   6.816798   7.082426   6.972979
    21  F    7.856865   8.343733   7.602261   8.637775   6.146494
    22  F    8.251505   9.007815   8.016715   8.754629   7.463543
    23  F    3.493422   3.091485   4.091278   4.315768   1.350000
    24  F    2.891722   2.343632   2.973687   3.928463   1.350000
    25  F    4.394636   4.175742   4.467006   5.434899   1.350000
                   11         12         13         14         15
    11  O    0.000000
    12  C    1.336840   0.000000
    13  C    2.378426   1.391928   0.000000
    14  C    2.383882   1.392717   2.374458   0.000000
    15  C    3.648336   2.428198   1.383066   2.760316   0.000000
    16  C    3.648925   2.423920   2.751745   1.383228   2.393235
    17  C    4.142792   2.806468   2.391483   2.397020   1.383908
    18  F    2.736207   2.350470   1.333959   3.596860   2.338441
    19  F    2.750650   2.351790   3.595113   1.328797   4.088936
    20  F    4.731919   3.636039   2.353849   4.088844   1.328540
    21  F    4.736119   3.632792   4.080578   2.352613   3.604776
    22  F    5.469989   4.133764   3.605735   3.609119   2.350756
    23  F    2.687900   3.984356   5.034249   4.653092   6.334968
    24  F    3.629629   4.666160   5.700055   5.137318   6.890159
    25  F    2.795329   3.591334   4.919356   3.608974   5.953444
                   16         17         18         19         20
    16  C    0.000000
    17  C    1.384765   0.000000
    18  F    4.085484   3.600807   0.000000
    19  F    2.334307   3.600089   4.699495   0.000000
    20  F    3.606534   2.348483   2.698666   5.417471   0.000000
    21  F    1.328834   2.346581   5.414284   2.693863   4.694629
    22  F    2.350681   1.327304   4.688872   4.684845   2.715029
    23  F    6.032380   6.759539   5.062617   4.290067   7.376884
    24  F    6.425479   7.204079   5.812170   4.680748   7.936949
    25  F    4.914369   5.951577   5.460291   2.791850   7.185864
                   21         22         23         24         25
    21  F    0.000000
    22  F    2.709713   0.000000
    23  F    6.865643   8.079267   0.000000
    24  F    7.136997   8.464474   2.207809   0.000000
    25  F    5.434828   7.180150   2.194751   2.191523   0.000000
 Stoichiometry    C9H5F8NO2
 Framework group  C1[X(C9H5F8NO2)]
 Deg. of freedom    69
 Full point group                 C1      NOp   1
 Largest Abelian subgroup         C1      NOp   1
 Largest concise Abelian subgroup C1      NOp   1
                         Standard orientation:                         
 ---------------------------------------------------------------------
 Center     Atomic      Atomic             Coordinates (Angstroms)
 Number     Number       Type             X           Y           Z
 ---------------------------------------------------------------------
      1          1           0       -1.457775    2.240477    0.206054
      2          8           0       -1.258439    0.041530    1.441897
      3          6           0       -1.745128    0.133642    0.307305
      4          7           0       -2.285769    1.671343    0.045019
      5          1           0       -2.546702    1.795096   -0.930266
      6          6           0       -3.365491    2.075880    0.955258
      7          1           0       -4.278526    1.549216    0.687884
      8          1           0       -3.064762    1.809969    1.966972
      9          1           0       -3.531580    3.149618    0.886302
     10          6           0       -2.845213   -0.796683   -0.159899
     11          8           0       -0.730246    0.134605   -0.862525
     12          6           0        0.554275    0.061601   -0.499459
     13          6           0        1.352228    1.200135   -0.432570
     14          6           0        1.162912   -1.155674   -0.203718
     15          6           0        2.695747    1.138013   -0.110127
     16          6           0        2.504088   -1.235908    0.125113
     17          6           0        3.275358   -0.086744    0.171336
     18          9           0        0.805272    2.391804   -0.677949
     19          9           0        0.447055   -2.274274   -0.248247
     20          9           0        3.428568    2.245108   -0.061833
     21          9           0        3.058938   -2.412436    0.396636
     22          9           0        4.563229   -0.160319    0.483925
     23          9           0       -3.285550   -0.501597   -1.401481
     24          9           0       -3.876974   -0.759654    0.709927
     25          9           0       -2.334255   -2.046236   -0.166143
 ---------------------------------------------------------------------
 Rotational constants (GHZ):           0.6071866           0.2196596           0.1764707
 Leave Link  202 at Wed Aug 28 18:24:43 2024, MaxMem=  8589934592 cpu:               0.2 elap:               0.0
 (Enter /share/apps/g16.b01_avx2/g16/l301.exe)
 Standard basis: def2TZVP (5D, 7F)
 Ernie: Thresh=  0.10000D-02 Tol=  0.10000D-05 Strict=F.
 There are   750 symmetry adapted cartesian basis functions of A   symmetry.
 There are   650 symmetry adapted basis functions of A   symmetry.
   650 basis functions,  1060 primitive gaussians,   750 cartesian basis functions
    77 alpha electrons       77 beta electrons
       nuclear repulsion energy      1811.5336001571 Hartrees.
 IExCor= 1009 DFT=T Ex+Corr=PBE1PBE ExCW=0 ScaHFX=  0.250000
 ScaDFX=  0.750000  0.750000  1.000000  1.000000 ScalE2=  1.000000  1.000000
 IRadAn=  99590 IRanWt=     -1 IRanGd=            0 ICorTp=0 IEmpDi=131
 NAtoms=   25 NActive=   25 NUniq=   25 SFac= 1.00D+00 NAtFMM=   60 NAOKFM=F Big=F
 Integral buffers will be    131072 words long.
 Raffenetti 2 integral format.
 Two-electron integral symmetry is turned on.
 R6Disp:  Grimme-D3 Dispersion energy=       -0.0170605101 Hartrees.
 Nuclear repulsion after empirical dispersion term =     1811.5165396471 Hartrees.
 ------------------------------------------------------------------------------
 Polarizable Continuum Model (PCM)
 =================================
 Model                : PCM.
 Atomic radii         : UFF (Universal Force Field).
 Polarization charges : Total charges.
 Charge compensation  : None.
 Solution method      : On-the-fly selection.
 Cavity type          : Scaled VdW (van der Waals Surface) (Alpha=1.100).
 Cavity algorithm     : GePol (No added spheres)
                        Default sphere list used, NSphG=   25.
                        Lebedev-Laikov grids with approx.  5.0 points / Ang**2.
                        Smoothing algorithm: York/Karplus (Gamma=1.0000).
                        Polarization charges: spherical gaussians, with
                                              point-specific exponents (IZeta= 3).
                        Self-potential: point-specific (ISelfS= 7).
                        Self-field    : sphere-specific E.n sum rule (ISelfD= 2).
 1st derivatives      : Analytical E(r).r(x)/FMM algorithm (CHGder, D1EAlg=3).
                        Cavity 1st derivative terms included.
 Solvent              : Water, Eps=  78.355300 Eps(inf)=   1.777849
 ------------------------------------------------------------------------------
 GePol: Number of generator spheres                  =      25
 GePol: Total number of spheres                      =      25
 GePol: Number of exposed spheres                    =      25 (100.00%)
 GePol: Number of points                             =    2246
 GePol: Average weight of points                     =       0.13
 GePol: Minimum weight of points                     =   0.12D-10
 GePol: Maximum weight of points                     =    0.20577
 GePol: Number of points with low weight             =     107
 GePol: Fraction of low-weight points (<1% of avg)   =       4.76%
 GePol: Cavity surface area                          =    283.027 Ang**2
 GePol: Cavity volume                                =    303.585 Ang**3
 Leave Link  301 at Wed Aug 28 18:24:44 2024, MaxMem=  8589934592 cpu:               1.7 elap:               0.1
 (Enter /share/apps/g16.b01_avx2/g16/l302.exe)
 NPDir=0 NMtPBC=     1 NCelOv=     1 NCel=       1 NClECP=     1 NCelD=      1
         NCelK=      1 NCelE2=     1 NClLst=     1 CellRange=     0.0.
 One-electron integrals computed using PRISM.
 One-electron integral symmetry used in STVInt
   1 Symmetry operations used in ECPInt.
 ECPInt:  NShTT=   28920 NPrTT=   93120 LenC2=   24838 LenP2D=   56185.
 LDataN:  DoStor=T MaxTD1= 6 Len=  172
 NBasis=   650 RedAO= T EigKep=  1.45D-05  NBF=   650
 NBsUse=   650 1.00D-06 EigRej= -1.00D+00 NBFU=   650
 Precomputing XC quadrature grid using
 IXCGrd= 4 IRadAn=       99590 IRanWt=          -1 IRanGd=           0 AccXCQ= 0.00D+00.
 Generated NRdTot=       0 NPtTot=           0 NUsed=           0 NTot=          32
 NSgBfM=   737   737   737   737   737 MxSgAt=    25 MxSgA2=    25.
 Leave Link  302 at Wed Aug 28 18:24:44 2024, MaxMem=  8589934592 cpu:              14.2 elap:               0.6
 (Enter /share/apps/g16.b01_avx2/g16/l303.exe)
 DipDrv:  MaxL=1.
 Leave Link  303 at Wed Aug 28 18:24:45 2024, MaxMem=  8589934592 cpu:               1.8 elap:               0.1
 (Enter /share/apps/g16.b01_avx2/g16/l401.exe)
 ExpMin= 9.52D-02 ExpMax= 3.55D+04 ExpMxC= 1.21D+03 IAcc=4 IRadAn=    199590 AccDes= 0.00D+00
 Harris functional with IExCor= 1009 and IRadAn=  199590 diagonalized for initial guess.
 HarFok:  IExCor= 1009 AccDes= 0.00D+00 IRadAn=    199590 IDoV= 1 UseB2=F ITyADJ=14
 ICtDFT=  3500011 ScaDFX=  1.000000  1.000000  1.000000  1.000000
 FoFCou: FMM=F IPFlag=           0 FMFlag=      100000 FMFlg1=           0
         NFxFlg=           0 DoJE=T BraDBF=F KetDBF=T FulRan=T
         wScrn=  0.000000 ICntrl=       500 IOpCl=  0 I1Cent=   200000004 NGrid=           0
         NMat0=    1 NMatS0=      1 NMatT0=    0 NMatD0=    1 NMtDS0=    0 NMtDT0=    0
 Petite list used in FoFCou.
 Harris En= -1349.12410836525    
 JPrj=0 DoOrth=F DoCkMO=F.
 Leave Link  401 at Wed Aug 28 18:24:48 2024, MaxMem=  8589934592 cpu:              71.4 elap:               3.0
 (Enter /share/apps/g16.b01_avx2/g16/l502.exe)
 Integral symmetry usage will be decided dynamically.
 Closed shell SCF:
 Using DIIS extrapolation, IDIIS=  1040.
 NGot=  8589934592 LenX=  8588785261 LenY=  8588222011
 Requested convergence on RMS density matrix=1.00D-08 within 128 cycles.
 Requested convergence on MAX density matrix=1.00D-06.
 Requested convergence on             energy=1.00D-06.
 No special actions if energy rises.
 Fock matrices will be formed incrementally for  20 cycles.

 Cycle   1  Pass 1  IDiag  1:
 FoFJK:  IHMeth= 1 ICntrl=       0 DoSepK=F KAlg= 0 I1Cent=           0 FoldK=F
 IRaf= 790000000 NMat=       1 IRICut=       1 DoRegI=T DoRafI=F ISym2E= 0 IDoP0=0 IntGTp=1.
 FoFCou: FMM=F IPFlag=           0 FMFlag=      100000 FMFlg1=           0
         NFxFlg=           0 DoJE=F BraDBF=F KetDBF=F FulRan=T
         wScrn=  0.000000 ICntrl=         0 IOpCl=  0 I1Cent=           0 NGrid=           0
         NMat0=    1 NMatS0=      1 NMatT0=    0 NMatD0=    1 NMtDS0=    0 NMtDT0=    0
 Symmetry not used in FoFCou.
 Inv3:  Mode=1 IEnd=    15133548.
 Iteration    1 A*A^-1 deviation from unit magnitude is 3.55D-15 for   1017.
 Iteration    1 A*A^-1 deviation from orthogonality  is 1.50D-15 for    515    276.
 Iteration    1 A^-1*A deviation from unit magnitude is 3.33D-15 for   1017.
 Iteration    1 A^-1*A deviation from orthogonality  is 1.60D-15 for   2033    205.
 E= -1348.81972811784    
 DIIS: error= 1.27D-02 at cycle   1 NSaved=   1.
 NSaved= 1 IEnMin= 1 EnMin= -1348.81972811784     IErMin= 1 ErrMin= 1.27D-02
 ErrMax= 1.27D-02  0.00D+00 EMaxC= 1.00D-01 BMatC= 4.01D-01 BMatP= 4.01D-01
 IDIUse=3 WtCom= 8.73D-01 WtEn= 1.27D-01
 Coeff-Com:  0.100D+01
 Coeff-En:   0.100D+01
 Coeff:      0.100D+01
 Gap=     0.255 Goal=   None    Shift=    0.000
 GapD=    0.255 DampG=1.000 DampE=0.500 DampFc=0.5000 IDamp=-1.
 Damping current iteration by 5.00D-01
 RMSDP=2.30D-03 MaxDP=2.87D-01              OVMax= 2.85D-01

 Cycle   2  Pass 1  IDiag  1:
 RMSU=  1.15D-03    CP:  1.00D+00
 E= -1348.88881800715     Delta-E=       -0.069089889312 Rises=F Damp=T
 DIIS: error= 5.06D-03 at cycle   2 NSaved=   2.
 NSaved= 2 IEnMin= 2 EnMin= -1348.88881800715     IErMin= 2 ErrMin= 5.06D-03
 ErrMax= 5.06D-03  0.00D+00 EMaxC= 1.00D-01 BMatC= 5.85D-02 BMatP= 4.01D-01
 IDIUse=3 WtCom= 9.49D-01 WtEn= 5.06D-02
 Coeff-Com:  0.165D+00 0.835D+00
 Coeff-En:   0.336D+00 0.664D+00
 Coeff:      0.174D+00 0.826D+00
 Gap=     0.292 Goal=   None    Shift=    0.000
 RMSDP=8.17D-04 MaxDP=1.08D-01 DE=-6.91D-02 OVMax= 1.94D-01

 Cycle   3  Pass 1  IDiag  1:
 RMSU=  6.03D-04    CP:  9.88D-01  5.27D-01
 E= -1349.04357773729     Delta-E=       -0.154759730136 Rises=F Damp=F
 DIIS: error= 6.27D-03 at cycle   3 NSaved=   3.
 NSaved= 3 IEnMin= 3 EnMin= -1349.04357773729     IErMin= 2 ErrMin= 5.06D-03
 ErrMax= 6.27D-03  0.00D+00 EMaxC= 1.00D-01 BMatC= 3.95D-02 BMatP= 5.85D-02
 IDIUse=3 WtCom= 9.37D-01 WtEn= 6.27D-02
 Coeff-Com: -0.209D-01 0.445D+00 0.576D+00
 Coeff-En:   0.000D+00 0.000D+00 0.100D+01
 Coeff:     -0.195D-01 0.417D+00 0.603D+00
 Gap=     0.246 Goal=   None    Shift=    0.000
 RMSDP=3.57D-04 MaxDP=2.21D-02 DE=-1.55D-01 OVMax= 6.05D-02

 Cycle   4  Pass 1  IDiag  1:
 RMSU=  3.30D-04    CP:  9.85D-01  6.00D-01  8.27D-01
 E= -1349.06786097890     Delta-E=       -0.024283241610 Rises=F Damp=F
 DIIS: error= 1.84D-03 at cycle   4 NSaved=   4.
 NSaved= 4 IEnMin= 4 EnMin= -1349.06786097890     IErMin= 4 ErrMin= 1.84D-03
 ErrMax= 1.84D-03  0.00D+00 EMaxC= 1.00D-01 BMatC= 5.81D-03 BMatP= 3.95D-02
 IDIUse=3 WtCom= 9.82D-01 WtEn= 1.84D-02
 Coeff-Com: -0.331D-01 0.134D+00 0.327D+00 0.571D+00
 Coeff-En:   0.000D+00 0.000D+00 0.995D-01 0.900D+00
 Coeff:     -0.325D-01 0.132D+00 0.323D+00 0.577D+00
 Gap=     0.243 Goal=   None    Shift=    0.000
 RMSDP=1.23D-04 MaxDP=8.31D-03 DE=-2.43D-02 OVMax= 1.95D-02

 Cycle   5  Pass 1  IDiag  1:
 RMSU=  7.38D-05    CP:  9.85D-01  6.05D-01  9.08D-01  7.43D-01
 E= -1349.07166935119     Delta-E=       -0.003808372288 Rises=F Damp=F
 DIIS: error= 5.65D-04 at cycle   5 NSaved=   5.
 NSaved= 5 IEnMin= 5 EnMin= -1349.07166935119     IErMin= 5 ErrMin= 5.65D-04
 ErrMax= 5.65D-04  0.00D+00 EMaxC= 1.00D-01 BMatC= 6.06D-04 BMatP= 5.81D-03
 IDIUse=3 WtCom= 9.94D-01 WtEn= 5.65D-03
 Coeff-Com: -0.163D-01 0.375D-01 0.120D+00 0.324D+00 0.535D+00
 Coeff-En:   0.000D+00 0.000D+00 0.000D+00 0.436D-01 0.956D+00
 Coeff:     -0.162D-01 0.373D-01 0.119D+00 0.322D+00 0.538D+00
 Gap=     0.244 Goal=   None    Shift=    0.000
 RMSDP=4.05D-05 MaxDP=2.63D-03 DE=-3.81D-03 OVMax= 5.45D-03

 Cycle   6  Pass 1  IDiag  1:
 RMSU=  1.92D-05    CP:  9.85D-01  6.11D-01  8.88D-01  7.77D-01  5.84D-01
 E= -1349.07210305384     Delta-E=       -0.000433702657 Rises=F Damp=F
 DIIS: error= 1.79D-04 at cycle   6 NSaved=   6.
 NSaved= 6 IEnMin= 6 EnMin= -1349.07210305384     IErMin= 6 ErrMin= 1.79D-04
 ErrMax= 1.79D-04  0.00D+00 EMaxC= 1.00D-01 BMatC= 2.74D-05 BMatP= 6.06D-04
 IDIUse=3 WtCom= 9.98D-01 WtEn= 1.79D-03
 Coeff-Com: -0.607D-02 0.103D-01 0.345D-01 0.117D+00 0.259D+00 0.585D+00
 Coeff-En:   0.000D+00 0.000D+00 0.000D+00 0.000D+00 0.000D+00 0.100D+01
 Coeff:     -0.606D-02 0.103D-01 0.344D-01 0.117D+00 0.259D+00 0.586D+00
 Gap=     0.244 Goal=   None    Shift=    0.000
 RMSDP=8.39D-06 MaxDP=6.13D-04 DE=-4.34D-04 OVMax= 1.16D-03

 Cycle   7  Pass 1  IDiag  1:
 RMSU=  5.68D-06    CP:  9.85D-01  6.13D-01  8.89D-01  7.66D-01  6.10D-01
                    CP:  7.98D-01
 E= -1349.07212345554     Delta-E=       -0.000020401695 Rises=F Damp=F
 DIIS: error= 3.32D-05 at cycle   7 NSaved=   7.
 NSaved= 7 IEnMin= 7 EnMin= -1349.07212345554     IErMin= 7 ErrMin= 3.32D-05
 ErrMax= 3.32D-05  0.00D+00 EMaxC= 1.00D-01 BMatC= 2.48D-06 BMatP= 2.74D-05
 IDIUse=1 WtCom= 1.00D+00 WtEn= 0.00D+00
 Coeff-Com: -0.169D-02 0.204D-02 0.603D-02 0.290D-01 0.815D-01 0.282D+00
 Coeff-Com:  0.601D+00
 Coeff:     -0.169D-02 0.204D-02 0.603D-02 0.290D-01 0.815D-01 0.282D+00
 Coeff:      0.601D+00
 Gap=     0.244 Goal=   None    Shift=    0.000
 RMSDP=3.03D-06 MaxDP=2.77D-04 DE=-2.04D-05 OVMax= 2.94D-04

 Cycle   8  Pass 1  IDiag  1:
 RMSU=  1.50D-06    CP:  9.85D-01  6.12D-01  8.89D-01  7.72D-01  6.10D-01
                    CP:  8.38D-01  7.85D-01
 E= -1349.07212508840     Delta-E=       -0.000001632863 Rises=F Damp=F
 DIIS: error= 1.23D-05 at cycle   8 NSaved=   8.
 NSaved= 8 IEnMin= 8 EnMin= -1349.07212508840     IErMin= 8 ErrMin= 1.23D-05
 ErrMax= 1.23D-05  0.00D+00 EMaxC= 1.00D-01 BMatC= 2.43D-07 BMatP= 2.48D-06
 IDIUse=1 WtCom= 1.00D+00 WtEn= 0.00D+00
 Coeff-Com: -0.179D-03-0.902D-05-0.955D-03 0.887D-03 0.102D-01 0.644D-01
 Coeff-Com:  0.277D+00 0.648D+00
 Coeff:     -0.179D-03-0.902D-05-0.955D-03 0.887D-03 0.102D-01 0.644D-01
 Coeff:      0.277D+00 0.648D+00
 Gap=     0.244 Goal=   None    Shift=    0.000
 RMSDP=7.76D-07 MaxDP=6.33D-05 DE=-1.63D-06 OVMax= 1.32D-04

 Cycle   9  Pass 1  IDiag  1:
 RMSU=  4.27D-07    CP:  9.85D-01  6.13D-01  8.89D-01  7.72D-01  6.13D-01
                    CP:  8.46D-01  8.29D-01  7.99D-01
 E= -1349.07212526194     Delta-E=       -0.000000173539 Rises=F Damp=F
 DIIS: error= 3.63D-06 at cycle   9 NSaved=   9.
 NSaved= 9 IEnMin= 9 EnMin= -1349.07212526194     IErMin= 9 ErrMin= 3.63D-06
 ErrMax= 3.63D-06  0.00D+00 EMaxC= 1.00D-01 BMatC= 2.02D-08 BMatP= 2.43D-07
 IDIUse=1 WtCom= 1.00D+00 WtEn= 0.00D+00
 Coeff-Com:  0.584D-04-0.159D-03-0.949D-03-0.211D-02-0.284D-02 0.908D-03
 Coeff-Com:  0.611D-01 0.289D+00 0.655D+00
 Coeff:      0.584D-04-0.159D-03-0.949D-03-0.211D-02-0.284D-02 0.908D-03
 Coeff:      0.611D-01 0.289D+00 0.655D+00
 Gap=     0.244 Goal=   None    Shift=    0.000
 RMSDP=2.24D-07 MaxDP=1.25D-05 DE=-1.74D-07 OVMax= 3.76D-05

 Cycle  10  Pass 1  IDiag  1:
 RMSU=  1.22D-07    CP:  9.85D-01  6.13D-01  8.89D-01  7.72D-01  6.12D-01
                    CP:  8.49D-01  8.37D-01  8.71D-01  7.24D-01
 E= -1349.07212527857     Delta-E=       -0.000000016631 Rises=F Damp=F
 DIIS: error= 8.95D-07 at cycle  10 NSaved=  10.
 NSaved=10 IEnMin=10 EnMin= -1349.07212527857     IErMin=10 ErrMin= 8.95D-07
 ErrMax= 8.95D-07  0.00D+00 EMaxC= 1.00D-01 BMatC= 8.87D-10 BMatP= 2.02D-08
 IDIUse=1 WtCom= 1.00D+00 WtEn= 0.00D+00
 Coeff-Com:  0.247D-04-0.606D-04-0.378D-03-0.869D-03-0.144D-02-0.130D-02
 Coeff-Com:  0.194D-01 0.106D+00 0.285D+00 0.593D+00
 Coeff:      0.247D-04-0.606D-04-0.378D-03-0.869D-03-0.144D-02-0.130D-02
 Coeff:      0.194D-01 0.106D+00 0.285D+00 0.593D+00
 Gap=     0.244 Goal=   None    Shift=    0.000
 RMSDP=5.84D-08 MaxDP=3.85D-06 DE=-1.66D-08 OVMax= 1.31D-05

 Cycle  11  Pass 1  IDiag  1:
 RMSU=  4.00D-08    CP:  9.85D-01  6.13D-01  8.89D-01  7.72D-01  6.12D-01
                    CP:  8.50D-01  8.40D-01  8.68D-01  7.64D-01  8.18D-01
 E= -1349.07212527921     Delta-E=       -0.000000000635 Rises=F Damp=F
 DIIS: error= 4.41D-07 at cycle  11 NSaved=  11.
 NSaved=11 IEnMin=11 EnMin= -1349.07212527921     IErMin=11 ErrMin= 4.41D-07
 ErrMax= 4.41D-07  0.00D+00 EMaxC= 1.00D-01 BMatC= 1.93D-10 BMatP= 8.87D-10
 IDIUse=1 WtCom= 1.00D+00 WtEn= 0.00D+00
 Coeff-Com:  0.410D-05-0.633D-05-0.544D-04-0.118D-03-0.357D-03-0.982D-03
 Coeff-Com: -0.577D-03 0.502D-02 0.376D-01 0.325D+00 0.635D+00
 Coeff:      0.410D-05-0.633D-05-0.544D-04-0.118D-03-0.357D-03-0.982D-03
 Coeff:     -0.577D-03 0.502D-02 0.376D-01 0.325D+00 0.635D+00
 Gap=     0.244 Goal=   None    Shift=    0.000
 RMSDP=1.86D-08 MaxDP=1.47D-06 DE=-6.35D-10 OVMax= 3.56D-06

 Cycle  12  Pass 1  IDiag  1:
 RMSU=  1.39D-08    CP:  9.85D-01  6.13D-01  8.89D-01  7.72D-01  6.12D-01
                    CP:  8.50D-01  8.40D-01  8.72D-01  7.67D-01  8.48D-01
                    CP:  8.14D-01
 E= -1349.07212527934     Delta-E=       -0.000000000133 Rises=F Damp=F
 DIIS: error= 6.58D-08 at cycle  12 NSaved=  12.
 NSaved=12 IEnMin=12 EnMin= -1349.07212527934     IErMin=12 ErrMin= 6.58D-08
 ErrMax= 6.58D-08  0.00D+00 EMaxC= 1.00D-01 BMatC= 7.13D-12 BMatP= 1.93D-10
 IDIUse=1 WtCom= 1.00D+00 WtEn= 0.00D+00
 Coeff-Com:  0.392D-06 0.106D-05-0.113D-05 0.289D-05-0.820D-04-0.342D-03
 Coeff-Com: -0.160D-02-0.539D-02-0.520D-02 0.884D-01 0.230D+00 0.695D+00
 Coeff:      0.392D-06 0.106D-05-0.113D-05 0.289D-05-0.820D-04-0.342D-03
 Coeff:     -0.160D-02-0.539D-02-0.520D-02 0.884D-01 0.230D+00 0.695D+00
 Gap=     0.244 Goal=   None    Shift=    0.000
 RMSDP=7.38D-09 MaxDP=5.22D-07 DE=-1.33D-10 OVMax= 4.84D-07

 Error on total polarization charges =  0.00776
 SCF Done:  E(RPBE1PBE) =  -1349.07212528     A.U. after   12 cycles
            NFock= 12  Conv=0.74D-08     -V/T= 2.0037
 KE= 1.344109918031D+03 PE=-6.815048403712D+03 EE= 2.310349820755D+03
 Leave Link  502 at Wed Aug 28 18:26:22 2024, MaxMem=  8589934592 cpu:            2229.1 elap:              93.4
 (Enter /share/apps/g16.b01_avx2/g16/l601.exe)
 Copying SCF densities to generalized density rwf, IOpCl= 0 IROHF=0.

 **********************************************************************

            Population analysis using the SCF Density.

 **********************************************************************

 Orbital symmetries:
       Occupied  (A) (A) (A) (A) (A) (A) (A) (A) (A) (A) (A) (A)
                 (A) (A) (A) (A) (A) (A) (A) (A) (A) (A) (A) (A)
                 (A) (A) (A) (A) (A) (A) (A) (A) (A) (A) (A) (A)
                 (A) (A) (A) (A) (A) (A) (A) (A) (A) (A) (A) (A)
                 (A) (A) (A) (A) (A) (A) (A) (A) (A) (A) (A) (A)
                 (A) (A) (A) (A) (A) (A) (A) (A) (A) (A) (A) (A)
                 (A) (A) (A) (A) (A)
       Virtual   (A) (A) (A) (A) (A) (A) (A) (A) (A) (A) (A) (A)
                 (A) (A) (A) (A) (A) (A) (A) (A) (A) (A) (A) (A)
                 (A) (A) (A) (A) (A) (A) (A) (A) (A) (A) (A) (A)
                 (A) (A) (A) (A) (A) (A) (A) (A) (A) (A) (A) (A)
                 (A) (A) (A) (A) (A) (A) (A) (A) (A) (A) (A) (A)
                 (A) (A) (A) (A) (A) (A) (A) (A) (A) (A) (A) (A)
                 (A) (A) (A) (A) (A) (A) (A) (A) (A) (A) (A) (A)
                 (A) (A) (A) (A) (A) (A) (A) (A) (A) (A) (A) (A)
                 (A) (A) (A) (A) (A) (A) (A) (A) (A) (A) (A) (A)
                 (A) (A) (A) (A) (A) (A) (A) (A) (A) (A) (A) (A)
                 (A) (A) (A) (A) (A) (A) (A) (A) (A) (A) (A) (A)
                 (A) (A) (A) (A) (A) (A) (A) (A) (A) (A) (A) (A)
                 (A) (A) (A) (A) (A) (A) (A) (A) (A) (A) (A) (A)
                 (A) (A) (A) (A) (A) (A) (A) (A) (A) (A) (A) (A)
                 (A) (A) (A) (A) (A) (A) (A) (A) (A) (A) (A) (A)
                 (A) (A) (A) (A) (A) (A) (A) (A) (A) (A) (A) (A)
                 (A) (A) (A) (A) (A) (A) (A) (A) (A) (A) (A) (A)
                 (A) (A) (A) (A) (A) (A) (A) (A) (A) (A) (A) (A)
                 (A) (A) (A) (A) (A) (A) (A) (A) (A) (A) (A) (A)
                 (A) (A) (A) (A) (A) (A) (A) (A) (A) (A) (A) (A)
                 (A) (A) (A) (A) (A) (A) (A) (A) (A) (A) (A) (A)
                 (A) (A) (A) (A) (A) (A) (A) (A) (A) (A) (A) (A)
                 (A) (A) (A) (A) (A) (A) (A) (A) (A) (A) (A) (A)
                 (A) (A) (A) (A) (A) (A) (A) (A) (A) (A) (A) (A)
                 (A) (A) (A) (A) (A) (A) (A) (A) (A) (A) (A) (A)
                 (A) (A) (A) (A) (A) (A) (A) (A) (A) (A) (A) (A)
                 (A) (A) (A) (A) (A) (A) (A) (A) (A) (A) (A) (A)
                 (A) (A) (A) (A) (A) (A) (A) (A) (A) (A) (A) (A)
                 (A) (A) (A) (A) (A) (A) (A) (A) (A) (A) (A) (A)
                 (A) (A) (A) (A) (A) (A) (A) (A) (A) (A) (A) (A)
                 (A) (A) (A) (A) (A) (A) (A) (A) (A) (A) (A) (A)
                 (A) (A) (A) (A) (A) (A) (A) (A) (A) (A) (A) (A)
                 (A) (A) (A) (A) (A) (A) (A) (A) (A) (A) (A) (A)
                 (A) (A) (A) (A) (A) (A) (A) (A) (A) (A) (A) (A)
                 (A) (A) (A) (A) (A) (A) (A) (A) (A) (A) (A) (A)
                 (A) (A) (A) (A) (A) (A) (A) (A) (A) (A) (A) (A)
                 (A) (A) (A) (A) (A) (A) (A) (A) (A) (A) (A) (A)
                 (A) (A) (A) (A) (A) (A) (A) (A) (A) (A) (A) (A)
                 (A) (A) (A) (A) (A) (A) (A) (A) (A) (A) (A) (A)
                 (A) (A) (A) (A) (A) (A) (A) (A) (A) (A) (A) (A)
                 (A) (A) (A) (A) (A) (A) (A) (A) (A) (A) (A) (A)
                 (A) (A) (A) (A) (A) (A) (A) (A) (A) (A) (A) (A)
                 (A) (A) (A) (A) (A) (A) (A) (A) (A) (A) (A) (A)
                 (A) (A) (A) (A) (A) (A) (A) (A) (A) (A) (A) (A)
                 (A) (A) (A) (A) (A) (A) (A) (A) (A) (A) (A) (A)
                 (A) (A) (A) (A) (A) (A) (A) (A) (A) (A) (A) (A)
                 (A) (A) (A) (A) (A) (A) (A) (A) (A) (A) (A) (A)
                 (A) (A) (A) (A) (A) (A) (A) (A) (A)
 The electronic state is 1-A.
 Alpha  occ. eigenvalues --  -24.82597 -24.82405 -24.81829 -24.81748 -24.81686
 Alpha  occ. eigenvalues --  -24.81620 -24.81594 -24.81047 -19.24667 -19.17413
 Alpha  occ. eigenvalues --  -14.48702 -10.48791 -10.39032 -10.34446 -10.34244
 Alpha  occ. eigenvalues --  -10.34149 -10.33918 -10.33759 -10.31492 -10.27088
 Alpha  occ. eigenvalues --   -1.36193  -1.30981  -1.30306  -1.29669  -1.28905
 Alpha  occ. eigenvalues --   -1.28523  -1.28048  -1.27369  -1.12547  -1.05271
 Alpha  occ. eigenvalues --   -1.00223  -0.92880  -0.81638  -0.81064  -0.78558
 Alpha  occ. eigenvalues --   -0.74277  -0.70234  -0.69691  -0.67655  -0.63650
 Alpha  occ. eigenvalues --   -0.63375  -0.62762  -0.62676  -0.61127  -0.60162
 Alpha  occ. eigenvalues --   -0.57666  -0.57603  -0.56727  -0.56362  -0.55405
 Alpha  occ. eigenvalues --   -0.55203  -0.52800  -0.51963  -0.51025  -0.50632
 Alpha  occ. eigenvalues --   -0.50322  -0.49927  -0.49572  -0.49146  -0.47592
 Alpha  occ. eigenvalues --   -0.47193  -0.47072  -0.46790  -0.45983  -0.45140
 Alpha  occ. eigenvalues --   -0.44577  -0.44100  -0.42690  -0.42151  -0.41982
 Alpha  occ. eigenvalues --   -0.41207  -0.37303  -0.34039  -0.31040  -0.29353
 Alpha  occ. eigenvalues --   -0.27422  -0.26852
 Alpha virt. eigenvalues --   -0.02482  -0.01468  -0.01267   0.03655   0.06154
 Alpha virt. eigenvalues --    0.07155   0.07461   0.09089   0.09317   0.10968
 Alpha virt. eigenvalues --    0.11529   0.12067   0.13588   0.13853   0.14768
 Alpha virt. eigenvalues --    0.16069   0.17557   0.17736   0.18433   0.19184
 Alpha virt. eigenvalues --    0.20173   0.20551   0.21643   0.22226   0.22678
 Alpha virt. eigenvalues --    0.23226   0.23575   0.24018   0.24641   0.25717
 Alpha virt. eigenvalues --    0.26472   0.27296   0.28286   0.28480   0.28748
 Alpha virt. eigenvalues --    0.28987   0.30110   0.31307   0.32002   0.32124
 Alpha virt. eigenvalues --    0.32808   0.34396   0.35235   0.36039   0.37216
 Alpha virt. eigenvalues --    0.37764   0.38748   0.39153   0.39501   0.40554
 Alpha virt. eigenvalues --    0.40983   0.41108   0.42249   0.42353   0.42824
 Alpha virt. eigenvalues --    0.43705   0.44165   0.44729   0.45259   0.45852
 Alpha virt. eigenvalues --    0.46858   0.47368   0.47723   0.48359   0.49015
 Alpha virt. eigenvalues --    0.50479   0.52231   0.53287   0.53497   0.53970
 Alpha virt. eigenvalues --    0.55740   0.56782   0.56900   0.58649   0.60007
 Alpha virt. eigenvalues --    0.61688   0.62464   0.62998   0.64265   0.64518
 Alpha virt. eigenvalues --    0.66048   0.67030   0.67359   0.68624   0.70062
 Alpha virt. eigenvalues --    0.70250   0.71331   0.71476   0.73080   0.73354
 Alpha virt. eigenvalues --    0.74197   0.74854   0.75231   0.76597   0.77279
 Alpha virt. eigenvalues --    0.78521   0.79197   0.80224   0.81607   0.82262
 Alpha virt. eigenvalues --    0.83386   0.83890   0.84384   0.84995   0.85284
 Alpha virt. eigenvalues --    0.85713   0.86696   0.87348   0.87846   0.88566
 Alpha virt. eigenvalues --    0.89704   0.90803   0.91229   0.92156   0.94569
 Alpha virt. eigenvalues --    0.94786   0.96280   0.96953   0.97517   0.98812
 Alpha virt. eigenvalues --    0.99488   1.00762   1.01419   1.02313   1.03492
 Alpha virt. eigenvalues --    1.04517   1.05491   1.05936   1.08626   1.09206
 Alpha virt. eigenvalues --    1.09966   1.10967   1.11428   1.11944   1.13510
 Alpha virt. eigenvalues --    1.15186   1.17079   1.17353   1.17915   1.20387
 Alpha virt. eigenvalues --    1.21430   1.23146   1.23855   1.25046   1.27379
 Alpha virt. eigenvalues --    1.28559   1.30063   1.32023   1.34079   1.34453
 Alpha virt. eigenvalues --    1.35370   1.38031   1.39400   1.40078   1.42463
 Alpha virt. eigenvalues --    1.43455   1.44515   1.45411   1.46405   1.47413
 Alpha virt. eigenvalues --    1.48418   1.49075   1.52291   1.53610   1.55001
 Alpha virt. eigenvalues --    1.55054   1.56547   1.58181   1.60289   1.61576
 Alpha virt. eigenvalues --    1.62925   1.64120   1.66049   1.68579   1.70435
 Alpha virt. eigenvalues --    1.72232   1.72818   1.73601   1.75058   1.77008
 Alpha virt. eigenvalues --    1.77794   1.78422   1.78770   1.79893   1.82164
 Alpha virt. eigenvalues --    1.82555   1.83827   1.85215   1.86860   1.88119
 Alpha virt. eigenvalues --    1.89460   1.91050   1.91902   1.92880   1.94879
 Alpha virt. eigenvalues --    1.95736   1.96208   1.96500   1.97226   1.99596
 Alpha virt. eigenvalues --    2.00319   2.00946   2.03055   2.04357   2.05118
 Alpha virt. eigenvalues --    2.05668   2.07044   2.07204   2.07750   2.08265
 Alpha virt. eigenvalues --    2.09384   2.12800   2.14856   2.15324   2.17162
 Alpha virt. eigenvalues --    2.18310   2.19705   2.20563   2.20991   2.21493
 Alpha virt. eigenvalues --    2.21938   2.23330   2.25578   2.26378   2.28542
 Alpha virt. eigenvalues --    2.29179   2.31096   2.32497   2.32949   2.33534
 Alpha virt. eigenvalues --    2.35687   2.35872   2.36773   2.38898   2.40274
 Alpha virt. eigenvalues --    2.41950   2.42967   2.44145   2.45826   2.46417
 Alpha virt. eigenvalues --    2.47430   2.48244   2.49734   2.50002   2.51041
 Alpha virt. eigenvalues --    2.53365   2.55271   2.57102   2.57305   2.58601
 Alpha virt. eigenvalues --    2.60285   2.60747   2.61677   2.62205   2.62887
 Alpha virt. eigenvalues --    2.63748   2.64705   2.66224   2.66771   2.68486
 Alpha virt. eigenvalues --    2.70871   2.72060   2.74498   2.75829   2.76875
 Alpha virt. eigenvalues --    2.78498   2.79834   2.80828   2.81578   2.82774
 Alpha virt. eigenvalues --    2.83959   2.84974   2.85507   2.87892   2.88877
 Alpha virt. eigenvalues --    2.89294   2.89589   2.90500   2.91483   2.91851
 Alpha virt. eigenvalues --    2.94183   2.94873   2.95904   2.96922   2.97874
 Alpha virt. eigenvalues --    2.98177   2.99149   3.00094   3.01138   3.03762
 Alpha virt. eigenvalues --    3.04942   3.05437   3.06452   3.07354   3.08779
 Alpha virt. eigenvalues --    3.09566   3.10212   3.11814   3.12382   3.13347
 Alpha virt. eigenvalues --    3.14089   3.14716   3.15827   3.17035   3.17558
 Alpha virt. eigenvalues --    3.18883   3.19077   3.19458   3.19809   3.20416
 Alpha virt. eigenvalues --    3.21517   3.21732   3.22591   3.23437   3.23989
 Alpha virt. eigenvalues --    3.25606   3.27613   3.29148   3.30248   3.31109
 Alpha virt. eigenvalues --    3.32489   3.34036   3.36045   3.37543   3.39630
 Alpha virt. eigenvalues --    3.41369   3.41625   3.43499   3.44221   3.44818
 Alpha virt. eigenvalues --    3.45240   3.45792   3.46240   3.47877   3.49251
 Alpha virt. eigenvalues --    3.50057   3.50606   3.51395   3.52802   3.54548
 Alpha virt. eigenvalues --    3.55670   3.56751   3.57726   3.59724   3.61481
 Alpha virt. eigenvalues --    3.62613   3.64385   3.65014   3.69448   3.70607
 Alpha virt. eigenvalues --    3.71131   3.71783   3.71982   3.76830   3.78391
 Alpha virt. eigenvalues --    3.80308   3.81795   3.82220   3.83881   3.85481
 Alpha virt. eigenvalues --    3.87920   3.89210   3.90593   3.92781   3.93651
 Alpha virt. eigenvalues --    3.94531   3.96571   3.97464   4.00423   4.01420
 Alpha virt. eigenvalues --    4.02949   4.03969   4.05928   4.07582   4.08885
 Alpha virt. eigenvalues --    4.09493   4.10732   4.12688   4.13837   4.14351
 Alpha virt. eigenvalues --    4.14938   4.15969   4.17591   4.18353   4.20075
 Alpha virt. eigenvalues --    4.21644   4.22064   4.23643   4.24146   4.30458
 Alpha virt. eigenvalues --    4.31523   4.33286   4.36169   4.39049   4.39474
 Alpha virt. eigenvalues --    4.42272   4.44521   4.49576   4.52119   4.54141
 Alpha virt. eigenvalues --    4.59675   4.60498   4.67024   4.70124   4.76306
 Alpha virt. eigenvalues --    4.79004   4.81941   4.83624   4.85131   4.86622
 Alpha virt. eigenvalues --    4.87831   4.89252   4.91523   4.96219   4.99028
 Alpha virt. eigenvalues --    5.03086   5.07401   5.09705   5.14446   5.16330
 Alpha virt. eigenvalues --    5.20736   5.24986   5.26401   5.30303   5.33626
 Alpha virt. eigenvalues --    5.37251   5.38659   5.39490   5.44121   5.45594
 Alpha virt. eigenvalues --    5.46543   5.50747   5.54725   5.58921   5.60129
 Alpha virt. eigenvalues --    5.67750   5.70577   5.74390   5.84291   5.85788
 Alpha virt. eigenvalues --    5.92181   6.04831   6.20893   6.30448   6.36487
 Alpha virt. eigenvalues --    6.38789   6.40037   6.49533   6.58901   6.71494
 Alpha virt. eigenvalues --    6.76269   6.79794   6.83518   6.83972   6.84372
 Alpha virt. eigenvalues --    6.84591   6.84699   6.84984   6.85223   6.85339
 Alpha virt. eigenvalues --    6.85534   6.85746   6.85913   6.86045   6.86323
 Alpha virt. eigenvalues --    6.86854   6.87066   6.87125   6.87564   6.88640
 Alpha virt. eigenvalues --    6.91433   6.93906   6.94017   6.96039   6.96806
 Alpha virt. eigenvalues --    6.97536   6.98898   7.00779   7.02529   7.02960
 Alpha virt. eigenvalues --    7.03126   7.05038   7.06639   7.06693   7.08487
 Alpha virt. eigenvalues --    7.09759   7.11397   7.12741   7.14543   7.16947
 Alpha virt. eigenvalues --    7.17479   7.20147   7.23848   7.26673   7.29409
 Alpha virt. eigenvalues --    7.29455   7.30760   7.32106   7.34022   7.35977
 Alpha virt. eigenvalues --    7.36667   7.37338   7.41012   7.43511   7.46586
 Alpha virt. eigenvalues --    7.50516   7.52788   7.57901   7.58659   7.66679
 Alpha virt. eigenvalues --    7.67295   7.75391   8.08734   8.30310   8.30818
 Alpha virt. eigenvalues --    8.31235   8.31796   8.33250   8.35700   8.37467
 Alpha virt. eigenvalues --    8.42508   8.42859   8.45400   8.46299   8.53791
 Alpha virt. eigenvalues --    8.54572   8.56399   8.58702   8.69276   8.70067
 Alpha virt. eigenvalues --    8.72682   8.76120   8.77083   8.78638   8.79563
 Alpha virt. eigenvalues --    8.79941   8.80741   8.87098   8.87256   8.89308
 Alpha virt. eigenvalues --    8.92897   8.93426   8.94597   8.99843   9.01651
 Alpha virt. eigenvalues --    9.02033   9.05239   9.07446   9.09627   9.09991
 Alpha virt. eigenvalues --    9.10034   9.12626   9.39957  22.28009  22.42993
 Alpha virt. eigenvalues --   22.77539  22.96988  22.98178  23.03701  23.13114
 Alpha virt. eigenvalues --   23.14746  23.75150  32.28141  44.22562  44.58576
 Alpha virt. eigenvalues --   57.19985  57.33875  57.37012  57.40621  57.42258
 Alpha virt. eigenvalues --   57.46323  57.54186  57.64951
          Condensed to atoms (all electrons):
               1          2          3          4          5          6
     1  H    0.405312   0.005293  -0.011893   0.347181  -0.018583  -0.017289
     2  O    0.005293   7.985106   0.676802  -0.094752   0.004269  -0.010276
     3  C   -0.011893   0.676802   4.806237   0.142208   0.001210  -0.036274
     4  N    0.347181  -0.094752   0.142208   6.245590   0.344388   0.283840
     5  H   -0.018583   0.004269   0.001210   0.344388   0.396776  -0.021866
     6  C   -0.017289  -0.010276  -0.036274   0.283840  -0.021866   4.911727
     7  H    0.005795   0.000640  -0.011377  -0.026132  -0.004862   0.408091
     8  H   -0.003335   0.015991   0.004678  -0.037506   0.006044   0.403559
     9  H   -0.007097  -0.000189   0.005581  -0.020608  -0.003290   0.398988
    10  C    0.004646  -0.037723   0.369571  -0.003216  -0.008550   0.003917
    11  O   -0.003261  -0.082440   0.189151  -0.036334   0.003296   0.004277
    12  C   -0.003987  -0.027331  -0.140017   0.028388  -0.000244  -0.001064
    13  C    0.000032   0.026619   0.004960  -0.013898   0.001845   0.000354
    14  C    0.000611   0.028870  -0.026812   0.005364  -0.000456  -0.000122
    15  C   -0.000936  -0.003399   0.001926   0.000091   0.000027   0.000110
    16  C    0.000033  -0.003938   0.000916   0.000060  -0.000031  -0.000007
    17  C   -0.000005   0.000169   0.000525  -0.000087   0.000007  -0.000002
    18  F    0.010372  -0.000563   0.000001  -0.002130   0.000145  -0.000083
    19  F   -0.000004  -0.001273   0.002703  -0.000047  -0.000003   0.000008
    20  F   -0.000018  -0.000001   0.000034  -0.000001  -0.000000   0.000000
    21  F   -0.000000  -0.000000   0.000022  -0.000000   0.000000   0.000000
    22  F    0.000000  -0.000000  -0.000002   0.000000   0.000000  -0.000000
    23  F   -0.000201   0.001610  -0.042253  -0.000437   0.003462  -0.001034
    24  F   -0.000360  -0.001575  -0.062697  -0.001162   0.000014   0.001457
    25  F   -0.000168  -0.001404  -0.068083   0.001965   0.000118  -0.000273
               7          8          9         10         11         12
     1  H    0.005795  -0.003335  -0.007097   0.004646  -0.003261  -0.003987
     2  O    0.000640   0.015991  -0.000189  -0.037723  -0.082440  -0.027331
     3  C   -0.011377   0.004678   0.005581   0.369571   0.189151  -0.140017
     4  N   -0.026132  -0.037506  -0.020608  -0.003216  -0.036334   0.028388
     5  H   -0.004862   0.006044  -0.003290  -0.008550   0.003296  -0.000244
     6  C    0.408091   0.403559   0.398988   0.003917   0.004277  -0.001064
     7  H    0.478308  -0.016919  -0.017295   0.008834  -0.000034   0.000041
     8  H   -0.016919   0.482241  -0.018749  -0.005640   0.000777  -0.000625
     9  H   -0.017295  -0.018749   0.485260  -0.000033  -0.000053   0.000072
    10  C    0.008834  -0.005640  -0.000033   4.170893  -0.016723   0.006841
    11  O   -0.000034   0.000777  -0.000053  -0.016723   8.060281   0.260644
    12  C    0.000041  -0.000625   0.000072   0.006841   0.260644   5.443742
    13  C    0.000024   0.000278  -0.000078   0.000324  -0.022595   0.167435
    14  C    0.000000  -0.000127   0.000003   0.001573  -0.022331   0.225036
    15  C   -0.000001   0.000008  -0.000001  -0.000362   0.008259   0.004637
    16  C   -0.000001   0.000003   0.000001   0.000549   0.009116  -0.025441
    17  C    0.000000   0.000003  -0.000000  -0.000050   0.001584   0.006897
    18  F   -0.000011   0.000011   0.000017   0.000020  -0.001138  -0.037800
    19  F    0.000000   0.000000   0.000000   0.003037   0.001680  -0.064018
    20  F    0.000000  -0.000000   0.000000   0.000000  -0.000056   0.009498
    21  F   -0.000000  -0.000000  -0.000000  -0.000005  -0.000063   0.009865
    22  F   -0.000000  -0.000000   0.000000   0.000000  -0.000001  -0.001059
    23  F    0.000825   0.000103  -0.000010   0.345156  -0.008198   0.000007
    24  F   -0.000406  -0.001162   0.000781   0.357408   0.001009  -0.000175
    25  F    0.000040   0.000011   0.000007   0.368552  -0.001407  -0.002461
              13         14         15         16         17         18
     1  H    0.000032   0.000611  -0.000936   0.000033  -0.000005   0.010372
     2  O    0.026619   0.028870  -0.003399  -0.003938   0.000169  -0.000563
     3  C    0.004960  -0.026812   0.001926   0.000916   0.000525   0.000001
     4  N   -0.013898   0.005364   0.000091   0.000060  -0.000087  -0.002130
     5  H    0.001845  -0.000456   0.000027  -0.000031   0.000007   0.000145
     6  C    0.000354  -0.000122   0.000110  -0.000007  -0.000002  -0.000083
     7  H    0.000024   0.000000  -0.000001  -0.000001   0.000000  -0.000011
     8  H    0.000278  -0.000127   0.000008   0.000003   0.000003   0.000011
     9  H   -0.000078   0.000003  -0.000001   0.000001  -0.000000   0.000017
    10  C    0.000324   0.001573  -0.000362   0.000549  -0.000050   0.000020
    11  O   -0.022595  -0.022331   0.008259   0.009116   0.001584  -0.001138
    12  C    0.167435   0.225036   0.004637  -0.025441   0.006897  -0.037800
    13  C    5.228802   0.024671   0.290674  -0.014732  -0.069443   0.241301
    14  C    0.024671   5.094299  -0.001828   0.343248  -0.086223   0.006164
    15  C    0.290674  -0.001828   4.982076  -0.052029   0.401841  -0.029187
    16  C   -0.014732   0.343248  -0.052029   4.980283   0.397202  -0.000360
    17  C   -0.069443  -0.086223   0.401841   0.397202   4.973867   0.006861
    18  F    0.241301   0.006164  -0.029187  -0.000360   0.006861   8.994180
    19  F    0.005580   0.288897  -0.000915  -0.034729   0.007235  -0.000030
    20  F   -0.054381  -0.001197   0.295259   0.006991  -0.044895   0.000601
    21  F   -0.000930  -0.051669   0.007192   0.291054  -0.045320   0.000000
    22  F    0.008983   0.008360  -0.045684  -0.044971   0.285272  -0.000027
    23  F   -0.000222  -0.000153  -0.000005  -0.000004  -0.000000   0.000002
    24  F   -0.000074   0.000075  -0.000000   0.000006  -0.000000   0.000000
    25  F   -0.000165   0.004329   0.000011   0.000609  -0.000012   0.000000
              19         20         21         22         23         24
     1  H   -0.000004  -0.000018  -0.000000   0.000000  -0.000201  -0.000360
     2  O   -0.001273  -0.000001  -0.000000  -0.000000   0.001610  -0.001575
     3  C    0.002703   0.000034   0.000022  -0.000002  -0.042253  -0.062697
     4  N   -0.000047  -0.000001  -0.000000   0.000000  -0.000437  -0.001162
     5  H   -0.000003  -0.000000   0.000000   0.000000   0.003462   0.000014
     6  C    0.000008   0.000000   0.000000  -0.000000  -0.001034   0.001457
     7  H    0.000000   0.000000  -0.000000  -0.000000   0.000825  -0.000406
     8  H    0.000000  -0.000000  -0.000000  -0.000000   0.000103  -0.001162
     9  H    0.000000   0.000000  -0.000000   0.000000  -0.000010   0.000781
    10  C    0.003037   0.000000  -0.000005   0.000000   0.345156   0.357408
    11  O    0.001680  -0.000056  -0.000063  -0.000001  -0.008198   0.001009
    12  C   -0.064018   0.009498   0.009865  -0.001059   0.000007  -0.000175
    13  C    0.005580  -0.054381  -0.000930   0.008983  -0.000222  -0.000074
    14  C    0.288897  -0.001197  -0.051669   0.008360  -0.000153   0.000075
    15  C   -0.000915   0.295259   0.007192  -0.045684  -0.000005  -0.000000
    16  C   -0.034729   0.006991   0.291054  -0.044971  -0.000004   0.000006
    17  C    0.007235  -0.044895  -0.045320   0.285272  -0.000000  -0.000000
    18  F   -0.000030   0.000601   0.000000  -0.000027   0.000002   0.000000
    19  F    8.967101   0.000000   0.000484  -0.000027  -0.000033  -0.000003
    20  F    0.000000   8.959648  -0.000028   0.001143  -0.000000   0.000000
    21  F    0.000484  -0.000028   8.961539   0.001085   0.000000  -0.000000
    22  F   -0.000027   0.001143   0.001085   8.957501   0.000000  -0.000000
    23  F   -0.000033  -0.000000   0.000000   0.000000   8.951521  -0.046091
    24  F   -0.000003   0.000000  -0.000000  -0.000000  -0.046091   8.955318
    25  F   -0.002945   0.000000  -0.000000   0.000000  -0.047108  -0.046880
              25
     1  H   -0.000168
     2  O   -0.001404
     3  C   -0.068083
     4  N    0.001965
     5  H    0.000118
     6  C   -0.000273
     7  H    0.000040
     8  H    0.000011
     9  H    0.000007
    10  C    0.368552
    11  O   -0.001407
    12  C   -0.002461
    13  C   -0.000165
    14  C    0.004329
    15  C    0.000011
    16  C    0.000609
    17  C   -0.000012
    18  F    0.000000
    19  F   -0.002945
    20  F    0.000000
    21  F   -0.000000
    22  F    0.000000
    23  F   -0.047108
    24  F   -0.046880
    25  F    8.946293
 Mulliken charges:
               1
     1  H    0.287859
     2  O   -0.480504
     3  C    0.192882
     4  N   -0.162765
     5  H    0.296282
     6  C   -0.328039
     7  H    0.174437
     8  H    0.170356
     9  H    0.176695
    10  C    0.430978
    11  O   -0.345439
    12  C    0.141118
    13  C    0.174634
    14  C    0.159419
    15  C    0.142237
    16  C    0.146172
    17  C    0.164574
    18  F   -0.188347
    19  F   -0.172700
    20  F   -0.172597
    21  F   -0.173227
    22  F   -0.170573
    23  F   -0.156938
    24  F   -0.155484
    25  F   -0.151029
 Sum of Mulliken charges =  -0.00000
 Mulliken charges with hydrogens summed into heavy atoms:
               1
     2  O   -0.480504
     3  C    0.192882
     4  N    0.421376
     6  C    0.193449
    10  C    0.430978
    11  O   -0.345439
    12  C    0.141118
    13  C    0.174634
    14  C    0.159419
    15  C    0.142237
    16  C    0.146172
    17  C    0.164574
    18  F   -0.188347
    19  F   -0.172700
    20  F   -0.172597
    21  F   -0.173227
    22  F   -0.170573
    23  F   -0.156938
    24  F   -0.155484
    25  F   -0.151029
 Electronic spatial extent (au):  <R**2>=           5543.9553
 Charge=             -0.0000 electrons
 Dipole moment (field-independent basis, Debye):
    X=             -5.1205    Y=              7.0877    Z=             -1.8682  Tot=              8.9412
 Quadrupole moment (field-independent basis, Debye-Ang):
   XX=           -100.8021   YY=           -102.2088   ZZ=           -111.3238
   XY=            -18.2027   XZ=             -0.5050   YZ=              2.1149
 Traceless Quadrupole moment (field-independent basis, Debye-Ang):
   XX=              3.9761   YY=              2.5694   ZZ=             -6.5455
   XY=            -18.2027   XZ=             -0.5050   YZ=              2.1149
 Octapole moment (field-independent basis, Debye-Ang**2):
  XXX=            -94.6531  YYY=             22.6242  ZZZ=            -10.4917  XYY=            -48.7626
  XXY=             44.9179  XXZ=             -5.5023  XZZ=              4.7123  YZZ=              0.5508
  YYZ=              2.7232  XYZ=             -1.8778
 Hexadecapole moment (field-independent basis, Debye-Ang**3):
 XXXX=          -4347.9286 YYYY=          -1352.3420 ZZZZ=           -367.4684 XXXY=           -113.8239
 XXXZ=            -17.7708 YYYX=            -47.1725 YYYZ=              5.8830 ZZZX=             35.2477
 ZZZY=            -10.2349 XXYY=           -898.5384 XXZZ=           -766.0772 YYZZ=           -278.0700
 XXYZ=             19.0342 YYXZ=             -1.8392 ZZXY=             -1.9531
 N-N= 1.811516539647D+03 E-N=-6.815048413885D+03  KE= 1.344109918031D+03
 No NMR shielding tensors so no spin-rotation constants.
 Leave Link  601 at Wed Aug 28 18:26:22 2024, MaxMem=  8589934592 cpu:               6.3 elap:               0.3
 (Enter /share/apps/g16.b01_avx2/g16/l701.exe)
 ... and contract with generalized density number  0.
 Compute integral first derivatives.
 R6Disp: Adding Grimme-D3 dispersion energy 1st derivatives to the gradient.
   1 Symmetry operations used in ECPInt.
 ECPInt:  NShTT=   28920 NPrTT=   93120 LenC2=   24838 LenP2D=   56185.
 LDataN:  DoStor=T MaxTD1= 7 Len=  274
 D1PCM: PCM CHGder 1st derivatives, ID1Alg=3 FixD1E=F DoIter=F DoCFld=F I1PDM=0.
 GePol: Maximum number of non-zero 1st derivatives   =     209
 Leave Link  701 at Wed Aug 28 18:26:24 2024, MaxMem=  8589934592 cpu:              30.7 elap:               1.3
 (Enter /share/apps/g16.b01_avx2/g16/l702.exe)
 L702 exits ... SP integral derivatives will be done elsewhere.
 Leave Link  702 at Wed Aug 28 18:26:24 2024, MaxMem=  8589934592 cpu:               0.4 elap:               0.0
 (Enter /share/apps/g16.b01_avx2/g16/l703.exe)
 Integral derivatives from FoFJK, PRISM(SPDF).
 Compute integral first derivatives, UseDBF=F ICtDFT=           0.
 Calling FoFJK, ICntrl=      2127 FMM=F ISym2X=0 I1Cent= 0 IOpClX= 0 NMat=1 NMatS=1 NMatT=0.
 FoFJK:  IHMeth= 1 ICntrl=    2127 DoSepK=F KAlg= 0 I1Cent=           0 FoldK=F
 IRaf=         0 NMat=       1 IRICut=       1 DoRegI=T DoRafI=F ISym2E= 0 IDoP0=0 IntGTp=1.
 FoFCou: FMM=F IPFlag=           0 FMFlag=      100000 FMFlg1=         800
         NFxFlg=           0 DoJE=F BraDBF=F KetDBF=F FulRan=T
         wScrn=  0.000000 ICntrl=      2127 IOpCl=  0 I1Cent=           0 NGrid=           0
         NMat0=    1 NMatS0=      1 NMatT0=    0 NMatD0=    1 NMtDS0=    0 NMtDT0=    0
 Symmetry not used in FoFCou.
 Leave Link  703 at Wed Aug 28 18:27:08 2024, MaxMem=  8589934592 cpu:            1049.9 elap:              43.8
 (Enter /share/apps/g16.b01_avx2/g16/l716.exe)
 Dipole        =-2.01456282D+00 2.78852876D+00-7.35021029D-01
 ***** Axes restored to original set *****
 -------------------------------------------------------------------
 Center     Atomic                   Forces (Hartrees/Bohr)
 Number     Number              X              Y              Z
 -------------------------------------------------------------------
      1        1           0.002259630   -0.001477506   -0.000191790
      2        8          -0.010268760   -0.011005915   -0.010856342
      3        6           0.029767493    0.041667982    0.013623391
      4        7          -0.004581128   -0.007087250   -0.002294083
      5        1          -0.000293528    0.000633169   -0.001465567
      6        6          -0.002920147    0.001575412    0.001646204
      7        1           0.000393452    0.001560507    0.000607639
      8        1          -0.000175399   -0.000025993   -0.000160092
      9        1           0.001112374    0.000112662   -0.000402898
     10        6           0.003756579   -0.019116515   -0.001993746
     11        8          -0.013523689   -0.005895806    0.000660490
     12        6           0.004520714   -0.001395388    0.003503344
     13        6          -0.002395262    0.001348635   -0.000071171
     14        6          -0.001143740   -0.002255613   -0.000651045
     15        6           0.000582123    0.000745181   -0.000110790
     16        6           0.001175943   -0.000468486    0.000452502
     17        6           0.000910500   -0.000210520    0.000233148
     18        9           0.000184392   -0.000909812    0.000198810
     19        9           0.001858542    0.002011940    0.000276314
     20        9          -0.000680444   -0.001029190   -0.000138436
     21        9          -0.000811407    0.000806599   -0.000322706
     22        9          -0.001327774   -0.000077462   -0.000399247
     23        9          -0.000497533   -0.006031122    0.016139837
     24        9           0.009295590   -0.002552624   -0.015636570
     25        9          -0.017198521    0.009077114   -0.002647194
 -------------------------------------------------------------------
 Cartesian Forces:  Max     0.041667982 RMS     0.008119390
 Leave Link  716 at Wed Aug 28 18:27:08 2024, MaxMem=  8589934592 cpu:               0.4 elap:               0.0
 (Enter /share/apps/g16.b01_avx2/g16/l103.exe)

 GradGradGradGradGradGradGradGradGradGradGradGradGradGradGradGradGradGrad
 Berny optimization.
 FormGI is forming the generalized inverse of G from B-inverse, IUseBI=4.
 Internal  Forces:  Max     0.017693807 RMS     0.004569202
 Search for a local minimum.
 Step number   1 out of a maximum of  134
 All quantities printed in internal units (Hartrees-Bohrs-Radians)
 RMS Force = .45692D-02 SwitMx=.10000D-02 MixMth= 1
 Mixed Optimization -- RFO/linear search
 Second derivative matrix not updated -- first step.
 ITU=  0
     Eigenvalues ---    0.00230   0.00230   0.00573   0.00779   0.02203
     Eigenvalues ---    0.02244   0.02255   0.02271   0.02283   0.02295
     Eigenvalues ---    0.02300   0.02303   0.02308   0.02527   0.03506
     Eigenvalues ---    0.04816   0.04998   0.06037   0.06238   0.07895
     Eigenvalues ---    0.08458   0.08523   0.09379   0.10268   0.12363
     Eigenvalues ---    0.16000   0.16000   0.16000   0.16829   0.19450
     Eigenvalues ---    0.20581   0.21938   0.24989   0.24996   0.24999
     Eigenvalues ---    0.24999   0.24999   0.25000   0.25000   0.25000
     Eigenvalues ---    0.25000   0.25000   0.25000   0.25000   0.25000
     Eigenvalues ---    0.27762   0.30894   0.34964   0.34993   0.35112
     Eigenvalues ---    0.35859   0.43572   0.43846   0.44730   0.44797
     Eigenvalues ---    0.47284   0.47705   0.48368   0.48532   0.55021
     Eigenvalues ---    0.55021   0.55021   0.57919   0.58580   0.59782
     Eigenvalues ---    0.59791   0.59852   0.60147   0.87832
 RFO step:  Lambda=-1.00887359D-02 EMin= 2.30000000D-03
 Linear search not attempted -- first point.
 Iteration  1 RMS(Cart)=  0.10250441 RMS(Int)=  0.00261675
 Iteration  2 RMS(Cart)=  0.00416109 RMS(Int)=  0.00038401
 Iteration  3 RMS(Cart)=  0.00000536 RMS(Int)=  0.00038399
 Iteration  4 RMS(Cart)=  0.00000000 RMS(Int)=  0.00038399
 ITry= 1 IFail=0 DXMaxC= 3.83D-01 DCOld= 1.00D+10 DXMaxT= 3.00D-01 DXLimC= 3.00D+00 Rises=F
 Variable       Old X    -DE/DX   Delta X   Delta X   Delta X     New X
                                 (Linear)    (Quad)   (Total)
    R1        1.92290   0.00051   0.00000   0.00111   0.00111   1.92401
    R2        2.33948  -0.01349   0.00000  -0.01518  -0.01518   2.32430
    R3        3.11983  -0.00170   0.00000  -0.00785  -0.00785   3.11198
    R4        2.86215   0.01769   0.00000   0.05546   0.05546   2.91761
    R5        2.92663  -0.01089   0.00000  -0.03786  -0.03786   2.88877
    R6        1.92212   0.00156   0.00000   0.00340   0.00340   1.92552
    R7        2.77602   0.00263   0.00000   0.00713   0.00713   2.78316
    R8        2.05494  -0.00142   0.00000  -0.00394  -0.00394   2.05100
    R9        2.05686  -0.00020   0.00000  -0.00056  -0.00056   2.05630
   R10        2.05733  -0.00025   0.00000  -0.00068  -0.00068   2.05665
   R11        2.55113  -0.01587   0.00000  -0.02833  -0.02833   2.52280
   R12        2.55113  -0.01652   0.00000  -0.02948  -0.02948   2.52165
   R13        2.55113  -0.01687   0.00000  -0.03012  -0.03012   2.52101
   R14        2.52626   0.00349   0.00000   0.00593   0.00593   2.53219
   R15        2.63036  -0.00102   0.00000  -0.00218  -0.00218   2.62818
   R16        2.63185   0.00051   0.00000   0.00109   0.00110   2.63295
   R17        2.61362  -0.00042   0.00000  -0.00094  -0.00094   2.61268
   R18        2.52082  -0.00088   0.00000  -0.00147  -0.00147   2.51935
   R19        2.61392   0.00019   0.00000   0.00046   0.00047   2.61439
   R20        2.51106  -0.00258   0.00000  -0.00424  -0.00424   2.50682
   R21        2.61521  -0.00004   0.00000  -0.00011  -0.00011   2.61510
   R22        2.51058  -0.00122   0.00000  -0.00200  -0.00200   2.50857
   R23        2.61683  -0.00024   0.00000  -0.00044  -0.00044   2.61639
   R24        2.51113  -0.00117   0.00000  -0.00192  -0.00192   2.50921
   R25        2.50824  -0.00138   0.00000  -0.00226  -0.00226   2.50598
    A1        1.92159   0.00543   0.00000   0.04780   0.04761   1.96920
    A2        2.12062  -0.00686   0.00000  -0.04970  -0.04985   2.07077
    A3        2.02049   0.00486   0.00000   0.03409   0.03187   2.05236
    A4        1.86007   0.00129   0.00000   0.00614   0.00656   1.86662
[...]
 0.01288370,-0.28876241,-0.07134157,-0.03416280,0.68819204,-0.00003002,
 0.00007973,0.00001254,-0.00002859,-0.00001299,-0.00037211,-0.00023684,
 0.00052704,0.00107754,0.00017531,-0.00010572,-0.00003524,-0.00001193,-
 0.00000054,-0.00003368,-0.00002502,-0.00002527,0.00008693,0.00000362,0
 .00000224,-0.00000681,-0.00000960,0.00001097,-0.00000021,0.00002366,-0
 .00001129,-0.00001919,-0.00010766,-0.00043338,-0.00019618,0.00200147,0
 .00115535,-0.00282492,0.00078416,-0.01995206,0.00230958,0.01181318,0.0
 1875503,0.00903908,-0.02743949,-0.00047283,-0.00563033,-0.01188864,-0.
 01759665,-0.06743926,-0.01954451,-0.09225867,-0.09175322,0.11870167,0.
 15932410,0.19688571,0.00212661,-0.00097364,0.00077287,-0.00111702,-0.0
 0348852,-0.00059892,-0.00232356,0.00427504,0.00376165,-0.00165892,-0.0
 0064318,-0.00115305,-0.00047916,-0.00040774,0.00056731,0.00029785,-0.0
 0077949,-0.00047251,-0.00021396,0.00013307,0.00026130,0.00002147,0.000
 05681,0.00000893,0.00002922,0.00007326,0.00000202,0.00010188,-0.000272
 72,-0.00033832,0.00992792,-0.00373556,0.00137146,-0.00134844,0.0022221
 4,-0.00166265,-0.18057660,0.13297636,0.00419177,-0.00382981,-0.0034706
 6,-0.00356198,-0.03621060,0.05413269,0.00493245,0.00361624,-0.00186447
 ,0.00083082,0.00112080,-0.00741241,-0.00305496,0.21382719,-0.00353547,
 -0.00177075,-0.00073012,0.00010163,-0.00025644,0.00213135,0.00266803,-
 0.00207876,-0.00391122,-0.00071062,0.00106659,0.00020457,0.00016046,0.
 00005201,0.00000596,-0.00012629,0.00021412,-0.00015027,0.00003961,-0.0
 0002291,-0.00001699,0.00001659,-0.00006639,0.00001009,-0.00009056,0.00
 001300,0.00005346,0.00028390,0.00116178,0.00035198,-0.00500759,0.00572
 260,0.00311147,0.04401657,-0.04492734,-0.00311658,0.13428757,-0.233029
 53,-0.02420324,-0.00670107,0.00320425,-0.00156414,0.00976076,-0.014085
 11,-0.00390674,-0.00143464,0.00417876,0.00159445,-0.00427798,-0.001992
 52,-0.00274693,-0.17678875,0.28485223,-0.00031684,-0.00037062,-0.00054
 488,0.00027230,0.00188231,-0.00012909,0.00029131,0.00068853,-0.0004472
 9,-0.00026818,-0.00004682,0.00028361,0.00006134,-0.00003550,0.00001681
 ,-0.00010276,-0.00011118,-0.00003089,-0.00002736,0.00002326,0.00003514
 ,-0.00002883,0.00001900,0.00001676,0.00000494,0.00000109,0.00000440,0.
 00025587,-0.00035807,-0.00012370,0.00295540,0.00234546,-0.00391373,0.0
 1042081,-0.01499041,0.00527539,0.00413900,-0.02496684,-0.04169974,-0.0
 0420357,-0.00141876,0.00379020,-0.00754885,0.00628335,0.00782292,0.001
 17584,0.00159212,-0.00211626,-0.00194037,-0.00359390,0.00279751,-0.007
 69459,0.03077230,0.03102660,-0.00005673,0.00001313,-0.00000528,0.00008
 565,0.00007422,-0.00013695,-0.00027936,0.00013039,0.00046671,0.0000872
 5,0.00008903,-0.00005482,-0.00003094,-0.00001004,-0.00000998,-0.000019
 95,-0.00003094,0.00002868,0.00000605,-0.00000224,-0.00000183,-0.000001
 14,0.00000383,-0.00000077,0.00001211,-0.00000447,-0.00001072,0.0011997
 8,-0.00152624,-0.00005454,0.00614220,0.00199623,0.00304611,0.00965970,
 0.01977639,0.00588126,-0.00737190,0.00060128,-0.00246870,-0.10056707,-
 0.07873844,-0.03717115,0.00300742,0.00030358,0.00140086,-0.01337618,-0
 .05032508,-0.01901490,-0.00392248,0.00795791,0.00067466,0.00115877,0.0
 0096224,0.00050635,0.10517137,-0.00055312,0.00018763,-0.00008329,0.000
 98984,0.00028437,-0.00107710,-0.00260308,0.00120121,0.00214764,0.00041
 040,-0.00007780,-0.00005768,-0.00010130,0.00002742,-0.00012629,-0.0001
 4585,-0.00003049,0.00029125,0.00003375,-0.00000315,-0.00003773,-0.0000
 2294,0.00003639,-0.00000064,0.00007804,-0.00004108,-0.00005574,0.00046
 446,-0.00260638,-0.00030703,0.00244356,0.00426592,0.00204234,-0.021140
 50,-0.05176039,-0.02140394,0.00373010,0.00549853,0.00154963,-0.0769704
 6,-0.29752827,-0.09223701,0.00022678,0.00468425,0.00216113,-0.00753533
 ,-0.03033793,-0.01274866,0.00495741,0.00127338,0.00018771,0.00190195,-
 0.00540009,-0.00123683,0.10362011,0.36772230,-0.00015735,0.00003270,-0
 .00003018,-0.00033085,-0.00003088,-0.00066883,-0.00021756,0.00095296,0
 .00183981,0.00014537,-0.00001408,-0.00003266,-0.00000450,-0.00000049,-
 0.00005057,-0.00004640,-0.00002287,0.00011047,0.00000556,0.00000348,-0
 .00000994,-0.00000882,0.00001485,-0.00000062,0.00002612,-0.00001416,-0
 .00002191,0.00006001,-0.00066185,-0.00043592,0.00392864,0.00342685,-0.
 00407320,-0.00770043,-0.01272373,0.00274031,-0.00168440,0.00005243,0.0
 0493379,-0.03554861,-0.09291830,-0.07138757,0.00154237,0.00225397,-0.0
 0189079,-0.00668855,-0.02212599,0.00070589,-0.00037087,0.00097953,0.00
 465852,0.00074369,-0.00154154,0.00014804,0.04746118,0.12177520,0.06779
 281,0.00019189,-0.00015095,0.00002745,-0.00049932,-0.00000938,0.000808
 68,0.00189265,-0.00031326,-0.00175722,-0.00036877,0.00022113,0.0000922
 8,0.00006050,-0.00002668,0.00006855,0.00006049,0.00004660,-0.00017716,
 -0.00001611,-0.00000095,0.00001934,0.00001218,-0.00002254,0.00000122,-
 0.00005116,0.00002546,0.00003715,0.00041280,0.00066134,0.00011164,-0.0
 0336562,-0.00273864,-0.00044694,-0.00379423,0.00805810,0.00015498,-0.0
 1154921,-0.04947043,-0.01866377,0.00305600,0.00055926,0.00142180,-0.10
 117119,-0.07947365,-0.03773933,-0.00781598,0.00025309,-0.00253205,0.00
 906111,0.01888063,0.00581649,0.00416328,-0.00058728,0.00208442,-0.0008
 2928,-0.00292592,-0.00125530,0.10229358,0.00042416,-0.00020947,0.00008
 412,-0.00094626,-0.00007825,0.00132081,0.00308774,-0.00058004,-0.00272
 832,-0.00070941,0.00036166,0.00016587,0.00009406,-0.00004215,0.0001239
 5,0.00011386,0.00007714,-0.00032979,-0.00003162,0.00000018,0.00003765,
 0.00002391,-0.00004358,0.00000182,-0.00009373,0.00004596,0.00006711,0.
 00080525,0.00109820,0.00022402,-0.00528624,-0.00102887,0.00011317,0.00
 501566,0.00172021,0.00008974,-0.00615342,-0.02804325,-0.01207617,0.000
 72686,0.00468366,0.00238163,-0.07947905,-0.29921927,-0.09440000,0.0026
 4093,0.00469720,0.00083492,-0.02507147,-0.05046661,-0.02239974,-0.0031
 4989,0.00938801,0.00357414,-0.00273766,-0.00817361,-0.00327665,0.10634
 261,0.36606867,0.00015098,-0.00009693,0.00002243,-0.00057816,-0.000134
 75,0.00052607,0.00124043,-0.00023828,-0.00098703,-0.00030069,0.0001718
 8,0.00004881,0.00003388,-0.00001035,0.00005190,0.00004822,0.00003332,-
 0.00014005,-0.00001207,-0.00000100,0.00001486,0.00001273,-0.00002009,-
 0.00000007,-0.00003969,0.00001929,0.00002749,0.00029762,0.00048527,0.0
 0008828,-0.00224025,-0.00090969,0.00033443,-0.00047712,0.00091881,0.00
 474580,-0.00591397,-0.02110512,0.00025924,0.00151801,0.00237003,-0.001
 85095,-0.03791131,-0.09420449,-0.07063622,-0.00178207,0.00028845,0.004
 03194,-0.00702593,-0.01311511,0.00270170,0.00140298,0.00387855,-0.0038
 9864,-0.00120206,-0.00331578,-0.00025202,0.04860902,0.12355267,0.06818
 333,0.00044064,-0.00021724,0.00009651,-0.00076691,-0.00012760,0.001349
 44,0.00294045,-0.00002865,-0.00323241,-0.00090915,0.00038435,0.0003282
 4,0.00010139,-0.00004879,0.00012850,0.00010017,0.00010834,-0.00035904,
 -0.00003645,0.00000199,0.00003776,0.00002452,-0.00003641,0.00000388,-0
 .00009922,0.00004642,0.00008104,0.00069286,0.00102686,0.00015293,-0.00
 650459,0.00157771,0.00107855,0.00134679,-0.00769721,-0.00250060,0.0041
 3646,-0.00145279,0.00092372,-0.03515065,0.05254705,0.00590671,-0.00554
 823,-0.00307858,-0.00316718,-0.18994412,0.14294276,0.00829108,-0.00177
 095,0.00192186,-0.00170590,-0.00417052,0.00504608,0.00027456,0.0043627
 4,-0.00278779,0.00119404,0.00130987,0.00185730,0.00067184,0.22090047,-
 0.00051648,0.00015245,-0.00010588,0.00081771,0.00018447,-0.00099683,-0
 .00235398,0.00032986,0.00208924,0.00063078,-0.00027318,-0.00015834,-0.
 00006858,0.00003581,-0.00011525,-0.00010556,-0.00005072,0.00029485,0.0
 0003289,-0.00000271,-0.00003603,-0.00002373,0.00003134,-0.00000090,0.0
 0007741,-0.00003973,-0.00006026,-0.00061756,-0.00097092,-0.00018659,0.
 00415617,0.00017307,-0.00046851,-0.00478404,-0.00156762,-0.00293324,-0
 .00192248,0.00366240,0.00168018,0.00919237,-0.01266453,-0.00421966,-0.
 00536548,0.00311002,-0.00137286,0.14301649,-0.23877750,-0.02890311,0.0
 4573068,-0.04324112,-0.00513360,0.00520371,-0.00579144,-0.00073421,-0.
 00056775,0.00973020,0.00438937,0.00074748,-0.00532306,-0.00162804,-0.1
 8998054,0.28581779,-0.00006104,-0.00001011,-0.00001587,0.00025300,0.00
 012165,0.00001196,-0.00023773,-0.00000365,-0.00023474,-0.00002640,-0.0
 0000096,0.00005605,0.00000482,-0.00000342,-0.00000626,-0.00001146,0.00
 001568,0.00000328,0.00000250,-0.00000088,-0.00000258,-0.00000274,0.000
 00347,0.00000132,-0.00000106,-0.00000018,0.00000311,-0.00003740,-0.000
 04648,-0.00000007,-0.00020913,0.00041520,0.00048312,-0.00200842,-0.003
 72499,0.00331272,0.00073496,0.00162251,-0.00203288,-0.00645355,0.00550
 429,0.00826324,-0.00377222,-0.00087388,0.00322310,0.00824291,-0.028884
 32,-0.04185854,0.01147102,-0.01490812,0.00612915,0.00048483,-0.0008429
 3,0.00078150,0.00191820,0.00369358,-0.00401412,0.00035118,-0.00142329,
 0.00039913,-0.01258284,0.03650939,0.02976568,0.00057088,-0.00030927,0.
 00008617,-0.00081516,0.00006026,0.00224784,0.00448074,-0.00177313,-0.0
 0473973,-0.00094001,0.00040211,0.00026747,0.00015964,-0.00005761,0.000
 18588,0.00017312,0.00011071,-0.00048708,-0.00004416,-0.00000239,0.0000
 5439,0.00003367,-0.00006122,0.00000485,-0.00013615,0.00006750,0.000100
 50,0.00099742,0.00202970,0.00052639,-0.01098116,0.00022911,-0.00057471
 ,0.00472336,-0.00010862,0.00183354,0.00517720,0.00063358,-0.00028756,0
 .00265967,0.00350430,0.00117894,-0.05308281,-0.01257203,-0.01705421,-0
 .04054949,-0.00036388,-0.01055834,-0.34105139,-0.03282477,-0.07623694,
 -0.00492283,0.00293661,-0.00047412,-0.00238469,-0.00374876,-0.00174907
 ,0.00756984,0.00367911,0.00397894,0.00947831,-0.00417848,0.00189907,0.
 42056841,-0.00002948,-0.00006402,-0.00001827,-0.00017148,0.00005051,0.
 00024182,0.00058952,-0.00025616,-0.00050312,-0.00011682,0.00006010,0.0
 0005460,0.00002897,-0.00000416,0.00001586,0.00001520,0.00002744,-0.000
 05463,-0.00000213,-0.00000197,0.00000350,0.00000369,-0.00000856,0.0000
 0073,-0.00001833,0.00000786,0.00001332,0.00017038,0.00021183,0.0000534
 2,-0.00132013,0.00026766,-0.00026373,-0.00009100,0.00241600,0.00151678
 ,-0.00217409,-0.00700742,-0.00385419,0.00626334,-0.00551150,-0.0015091
 8,0.03095637,0.00806139,0.00671869,-0.04380710,-0.00021642,-0.01193384
 ,-0.03270363,-0.07560775,-0.01922294,0.00207504,0.00035124,0.00038154,
 -0.00275329,-0.00113439,-0.00111862,0.00046266,0.00597886,0.00348019,-
 0.00112549,0.00465004,0.00278619,0.04398531,0.06789302,0.00008531,-0.0
 0009345,0.00001504,0.00001085,0.00006349,0.00068550,0.00105643,-0.0006
 1915,-0.00160844,-0.00023025,0.00013615,0.00004811,0.00003364,-0.00001
 216,0.00004852,0.00004176,0.00003227,-0.00012466,-0.00000900,-0.000002
 20,0.00001191,0.00000942,-0.00001584,0.00000145,-0.00003483,0.00001614
 ,0.00002601,0.00020526,0.00055688,0.00019512,-0.00329575,-0.00020725,0
 .00097740,0.00191824,0.00169647,-0.00191293,-0.00070780,-0.00315648,0.
 00300219,0.00198588,-0.00207543,0.00427445,-0.00423614,-0.00261351,0.0
 0652201,-0.02390007,-0.00266244,0.00232187,-0.07614878,-0.01924947,-0.
 05740244,-0.00055092,0.00063799,0.00073423,-0.00157440,-0.00131669,-0.
 00011487,0.00292671,0.00406135,-0.00366260,0.00304577,0.00205704,-0.00
 428854,0.09982390,0.02320542,0.05026113,0.00024750,0.00006883,0.000300
 98,-0.00611944,-0.00823612,-0.00612705,0.00210799,0.01081348,-0.024145
 76,0.00078370,-0.00234100,0.00140758,-0.00040049,-0.00167343,0.0001644
 6,-0.00037194,-0.00020364,0.00026950,0.00015744,-0.00002987,-0.0001311
 4,-0.00012901,0.00014068,0.00002364,0.00017757,0.00000412,-0.00006176,
 -0.10442752,-0.01990296,-0.06433185,-0.00424178,-0.00216469,-0.0000231
 0,0.00245228,0.00005099,0.00019258,-0.00013419,0.00025314,-0.00026270,
 -0.00005612,-0.00019960,-0.00009307,0.00016598,0.00027390,0.00016644,0
 .00026583,-0.00023170,-0.00000960,0.00030567,0.00002332,0.00006553,-0.
 00000433,-0.00024608,0.00010077,-0.00010029,0.00016807,0.00009119,-0.0
 0016471,-0.00030301,-0.00012909,-0.00026359,0.00024739,0.00001972,-0.0
 0044378,-0.00005584,-0.00011032,0.11561386,0.00019441,0.00034978,-0.00
 094173,-0.00654638,-0.00729807,-0.00598814,-0.00232563,0.01265560,-0.0
 2326881,0.00005624,-0.00261761,0.00066759,-0.00103698,-0.00143727,-0.0
 0185780,-0.00095789,0.00015479,0.00044770,0.00005721,-0.00011346,-0.00
 002145,0.00003048,0.00005847,-0.00010214,0.00011627,-0.00005727,-0.000
 05328,-0.01567795,-0.08263844,-0.02219850,-0.00441536,-0.00100900,0.00
 165063,0.00168144,0.00008526,0.00046508,0.00000327,0.00017820,-0.00029
 103,-0.00036866,-0.00058914,-0.00018717,0.00011616,0.00026488,0.000125
 08,0.00024177,-0.00014905,-0.00001057,0.00025654,-0.00000982,0.0000622
 1,-0.00009778,-0.00020155,0.00012054,0.00020181,0.00041448,0.00009772,
 -0.00012739,-0.00023066,-0.00010468,-0.00022145,0.00020773,0.00001876,
 -0.00038736,-0.00004050,-0.00009797,-0.00257517,0.07586546,0.00027963,
 0.00033547,0.00036697,-0.00741315,-0.00980320,-0.00533986,-0.00194132,
 0.01607085,-0.02667317,0.00128141,-0.00154992,0.00198316,0.00024183,-0
 .00361707,-0.00041902,0.00032436,-0.00017684,0.00039505,-0.00030468,0.
 00027218,-0.00026827,-0.00025102,0.00028811,0.00015407,0.00001345,-0.0
 0013519,-0.00000161,-0.07453162,-0.03470809,-0.21359509,-0.00328165,-0
 .00150984,0.00411690,0.00133280,0.00037628,0.00141990,0.00023004,0.000
 31698,-0.00032944,-0.00003665,-0.00021329,-0.00015917,0.00013182,0.000
 36863,0.00011791,0.00026291,-0.00024141,-0.00006913,0.00028338,-0.0000
 0302,0.00010134,-0.00003482,-0.00030429,0.00020402,-0.00011906,0.00012
 268,0.00017839,-0.00012026,-0.00026787,-0.00012593,-0.00023488,0.00023
 156,0.00002497,-0.00042885,-0.00004794,-0.00012546,0.09815288,0.000409
 42,0.34487424,0.00035099,-0.00013278,-0.00005635,0.00141317,-0.0019976
 6,-0.00264039,-0.02024812,0.00599864,0.02819162,0.00049508,-0.00392077
 ,-0.00029358,-0.00036139,0.00033458,-0.00019416,-0.00154357,-0.0001255
 8,0.00079818,0.00108185,0.00008777,-0.00002089,-0.00002047,0.00005102,
 -0.00008485,0.00086253,0.00032016,-0.00036773,-0.19829319,-0.04129348,
 0.07960911,-0.01033120,-0.00500879,-0.00016720,0.00340673,-0.00115177,
 0.00253132,-0.00119925,0.00089450,-0.00027334,-0.00024415,-0.00058057,
 -0.00023236,0.00038244,0.00060883,0.00012688,0.00052243,-0.00057042,-0
 .00009425,0.00067740,0.00007863,0.00022937,0.00039622,-0.00063662,0.00
 010296,-0.00024899,0.00040488,0.00033179,-0.00037249,-0.00064938,-0.00
 027806,-0.00053423,0.00050760,0.00001464,-0.00105840,-0.00013539,-0.00
 029621,0.01534256,0.00024270,0.02083314,0.26690706,0.00000154,0.000472
 87,-0.00016453,-0.00077040,-0.00176966,-0.00164948,-0.01845697,0.00966
 337,0.01840803,0.00185357,0.00101791,-0.00129868,-0.00008629,0.0000139
 7,-0.00027242,0.00202544,-0.00247230,0.00069165,-0.00074817,-0.0027670
 7,0.00019265,-0.00004833,0.00011933,0.00001851,-0.00050933,-0.00059151
 ,-0.00013841,-0.03427271,-0.08661468,0.01615288,-0.00931762,-0.0034674
 8,0.00035462,0.00209757,-0.00092477,0.00221134,-0.00080476,0.00062181,
 -0.00023709,-0.00052181,-0.00098963,-0.00033157,0.00025711,0.00042936,
 0.00006707,0.00035931,-0.00033136,-0.00006382,0.00045662,0.00003221,0.
 00016596,0.00025409,-0.00045269,0.00012102,0.00028239,0.00069897,0.000
 25990,-0.00023886,-0.00040455,-0.00017953,-0.00035416,0.00033915,0.000
 00994,-0.00073646,-0.00008283,-0.00020914,0.00179249,0.01218429,0.0014
 7986,0.00999670,0.07662280,-0.00003986,-0.00004550,0.00015269,-0.00129
 764,0.00096648,0.00626211,0.00554430,-0.00745159,-0.00770325,-0.000488
 58,0.00070072,0.00007066,0.00014280,-0.00094868,-0.00001339,0.00072864
 ,0.00009370,-0.00004169,-0.00067772,0.00057480,-0.00022901,0.00004042,
 0.00018138,0.00011318,-0.00036772,-0.00015715,0.00027627,0.09243884,0.
 02578210,-0.13033607,0.00348483,0.00195474,0.00080845,-0.00125520,0.00
 047327,-0.00081846,0.00048553,-0.00042081,0.00013579,0.00012203,0.0001
 3347,0.00011113,-0.00007765,-0.00020961,-0.00003958,-0.00022372,0.0001
 7160,0.00000462,-0.00025479,0.00002635,-0.00008080,-0.00019117,0.00027
 803,-0.00004889,0.00012812,-0.00010690,-0.00011791,0.00014152,0.000240
 36,0.00010739,0.00019713,-0.00017919,-0.00000305,0.00037650,0.00004602
 ,0.00011029,0.03397809,0.00707582,-0.08114859,-0.15519440,-0.01283041,
 0.20705305,0.00007948,0.00002572,0.00011323,0.00184533,-0.00142029,0.0
 0095233,0.00110450,-0.00186639,-0.00068144,0.00016911,-0.00116041,0.00
 025275,-0.00003765,-0.00080827,0.00008895,-0.00030984,-0.00004004,0.00
 001692,0.00040362,-0.00033565,-0.00000309,-0.00003722,0.00000807,0.000
 00865,0.00021812,0.00013839,-0.00004433,-0.11590521,0.08675272,-0.0093
 7858,0.00213136,-0.00329337,-0.00061380,0.00111684,0.00070269,-0.00021
 298,-0.00005382,0.00014265,0.00005490,0.00066403,0.00118204,0.00030830
 ,0.00003465,0.00013278,0.00005664,0.00013053,-0.00021821,-0.00004815,0
 .00014609,0.00002757,0.00003098,0.00006827,-0.00013708,-0.00004039,-0.
 00170405,-0.00089431,0.00023275,-0.00008612,-0.00020033,-0.00007416,-0
 .00013607,0.00012400,0.00000713,-0.00018224,-0.00004627,-0.00004872,-0
 .02076319,0.03153970,-0.03466971,-0.05738301,0.04748903,0.02225972,0.1
 8848647,0.00262688,-0.00141653,0.00046586,-0.00584351,0.00087567,-0.00
 416061,0.03775975,-0.02992329,0.01162695,-0.00551125,-0.00975165,-0.00
 092077,-0.00049211,0.00116970,-0.00116957,-0.00090126,-0.00025078,0.00
 161877,-0.00019024,0.00029980,-0.00018421,0.00015209,0.00010164,-0.000
 07269,0.00051734,-0.00022337,-0.00042150,0.07161929,-0.24480417,0.0117
 3762,-0.00373991,-0.00050650,-0.00061994,0.00146268,0.00005679,0.00109
 019,-0.00010356,0.00013423,-0.00020638,-0.00079397,-0.00156068,-0.0004
 6954,0.00021613,0.00033673,0.00014188,0.00025211,-0.00011696,-0.000024
 83,0.00033682,0.00001721,0.00010226,-0.00021934,-0.00012908,0.00005848
 ,0.00068366,0.00106853,0.00021020,-0.00017244,-0.00027636,-0.00013461,
 -0.00030403,0.00027822,0.00002251,-0.00051433,-0.00004025,-0.00013202,
 0.02432671,-0.00602711,0.03230595,0.03667719,-0.00134749,-0.01634902,-
 0.15784473,0.29203567,0.00010386,-0.00004299,0.00014362,0.00201202,-0.
 00041772,0.00355061,0.00000916,-0.00425840,0.00327493,-0.00034043,-0.0
 0000214,-0.00012299,-0.00000431,-0.00068009,-0.00008094,0.00024014,-0.
 00011857,-0.00004994,-0.00011758,0.00006895,-0.00003734,-0.00002442,0.
 00004547,0.00005616,-0.00003124,-0.00003983,0.00001575,-0.01017670,0.0
 1711335,-0.07220356,-0.00101652,0.00170171,0.00087894,-0.00040265,-0.0
 0011997,0.00008569,0.00009454,0.00000770,-0.00001586,-0.00003763,-0.00
 016115,-0.00002802,-0.00002452,0.00000924,-0.00001137,0.00002326,0.000
 04783,0.00000123,-0.00001773,-0.00002538,-0.00000521,-0.00001820,0.000
 00477,0.00001597,0.00031303,0.00014011,-0.00000691,0.00001960,0.000028
 50,0.00001072,0.00002115,-0.00001914,-0.00000169,0.00002621,0.00000837
 ,0.00000469,-0.03950791,0.04398271,-0.02568219,0.02742478,-0.02275834,
 0.00537503,0.02143208,-0.03451500,0.08483268\\-0.00000113,0.00000189,-
 0.00000074,0.00000730,-0.00000522,0.00001021,-0.00000806,0.00001466,-0
 .00000899,-0.00000237,0.00000469,0.00000665,-0.00000476,-0.00000351,0.
 00000135,-0.00000061,0.00000098,0.00000033,-0.00000180,-0.00000622,-0.
 00000286,0.00000165,-0.00000274,-0.00000412,0.00000012,-0.00000108,-0.
 00000147,-0.00000536,0.00000240,0.00000849,-0.00001058,0.00000237,-0.0
 0000048,0.00001542,-0.00000436,0.00000669,-0.00000640,0.00001171,0.000
 00540,0.00000523,-0.00000150,-0.00000164,0.00000056,-0.00000315,-0.000
 00146,-0.00000131,0.00000043,-0.00000084,-0.00000214,0.00000240,-0.000
 00121,0.00000290,-0.00000354,-0.00001061,0.00000206,0.00000294,-0.0000
 0012,-0.00000072,0.00000263,-0.00000102,0.00000256,0.00000226,0.000000
 81,0.00000020,0.00000324,-0.00000067,-0.00000593,-0.00000578,0.0000080
 3,0.00000937,-0.00000006,-0.00001470,0.00000381,-0.00001541,0.00000296
 \\\@


 LENDING MONEY TO FRIENDS CAUSES THEM TO LOSE THEIR MEMORIES.

    --  PETER'S THEORY OF RECIPROCAL INHIBITION OF FISCAL RECALL
 Job cpu time:       0 days  9 hours 19 minutes 37.6 seconds.
 Elapsed time:       0 days  0 hours 23 minutes 20.9 seconds.
 File lengths (MBytes):  RWF=   1121 Int=      0 D2E=      0 Chk=     42 Scr=      1
 Normal termination of Gaussian 16 at Wed Aug 28 19:38:30 2024.
