 Entering Gaussian System, Link 0=g16
 Input=input.com
 Output=input.log
 Initial command:
 /share/apps/g16.b01_avx2/g16/l1.exe "/scratch/Gau-1920393.inp" -scrdir="/scratch/"
 Entering Link 1 = /share/apps/g16.b01_avx2/g16/l1.exe PID=   1920395.
  
 Copyright (c) 1988-2017, Gaussian, Inc.  All Rights Reserved.
  
 This is part of the Gaussian(R) 16 program.  It is based on
 the Gaussian(R) 09 system (copyright 2009, Gaussian, Inc.),
 the Gaussian(R) 03 system (copyright 2003, Gaussian, Inc.),
 the Gaussian(R) 98 system (copyright 1998, Gaussian, Inc.),
 the Gaussian(R) 94 system (copyright 1995, Gaussian, Inc.),
 the Gaussian 92(TM) system (copyright 1992, Gaussian, Inc.),
 the Gaussian 90(TM) system (copyright 1990, Gaussian, Inc.),
 the Gaussian 88(TM) system (copyright 1988, Gaussian, Inc.),
 the Gaussian 86(TM) system (copyright 1986, Carnegie Mellon
 University), and the Gaussian 82(TM) system (copyright 1983,
 Carnegie Mellon University). Gaussian is a federally registered
 trademark of Gaussian, Inc.
  
 This software contains proprietary and confidential information,
 including trade secrets, belonging to Gaussian, Inc.
  
 This software is provided under written license and may be
 used, copied, transmitted, or stored only in accord with that
 written license.
  
 The following legend is applicable only to US Government
 contracts under FAR:
  
                    RESTRICTED RIGHTS LEGEND
  
 Use, reproduction and disclosure by the US Government is
 subject to restrictions as set forth in subparagraphs (a)
 and (c) of the Commercial Computer Software - Restricted
 Rights clause in FAR 52.227-19.
  
 Gaussian, Inc.
 340 Quinnipiac St., Bldg. 40, Wallingford CT 06492
  
  
 ---------------------------------------------------------------
 Warning -- This program may not be used in any manner that
 competes with the business of Gaussian, Inc. or will provide
 assistance to any competitor of Gaussian, Inc.  The licensee
 of this program is prohibited from giving any competitor of
 Gaussian, Inc. access to this program.  By using this program,
 the user acknowledges that Gaussian, Inc. is engaged in the
 business of creating and licensing software in the field of
 computational chemistry and represents and warrants to the
 licensee that it is not a competitor of Gaussian, Inc. and that
 it will not use this program in any manner prohibited above.
 ---------------------------------------------------------------
  

 Cite this work as:
 Gaussian 16, Revision B.01,
 M. J. Frisch, G. W. Trucks, H. B. Schlegel, G. E. Scuseria, 
 M. A. Robb, J. R. Cheeseman, G. Scalmani, V. Barone, 
 G. A. Petersson, H. Nakatsuji, X. Li, M. Caricato, A. V. Marenich, 
 J. Bloino, B. G. Janesko, R. Gomperts, B. Mennucci, H. P. Hratchian, 
 J. V. Ortiz, A. F. Izmaylov, J. L. Sonnenberg, D. Williams-Young, 
 F. Ding, F. Lipparini, F. Egidi, J. Goings, B. Peng, A. Petrone, 
 T. Henderson, D. Ranasinghe, V. G. Zakrzewski, J. Gao, N. Rega, 
 G. Zheng, W. Liang, M. Hada, M. Ehara, K. Toyota, R. Fukuda, 
 J. Hasegawa, M. Ishida, T. Nakajima, Y. Honda, O. Kitao, H. Nakai, 
 T. Vreven, K. Throssell, J. A. Montgomery, Jr., J. E. Peralta, 
 F. Ogliaro, M. J. Bearpark, J. J. Heyd, E. N. Brothers, K. N. Kudin, 
 V. N. Staroverov, T. A. Keith, R. Kobayashi, J. Normand, 
 K. Raghavachari, A. P. Rendell, J. C. Burant, S. S. Iyengar, 
 J. Tomasi, M. Cossi, J. M. Millam, M. Klene, C. Adamo, R. Cammi, 
 J. W. Ochterski, R. L. Martin, K. Morokuma, O. Farkas, 
 J. B. Foresman, and D. J. Fox, Gaussian, Inc., Wallingford CT, 2016.
 
 ******************************************
 Gaussian 16:  ES64L-G16RevB.01 20-Dec-2017
                29-Aug-2024 
 ******************************************
 %nproc=24
 Will use up to   24 processors via shared memory.
 %mem=64GB
 ----------------------------------------------------------------------
 #P PBE1PBE/def2TZVP opt=(calcfc, ts, noeigentest) freq EmpiricalDisper
 sion=GD3 Int=(grid=99590) scrf=(iefpcm, solvent=water)
 ----------------------------------------------------------------------
 1/5=1,10=4,11=1,18=20,26=6,38=1/1,3;
 2/9=110,12=2,17=6,18=5,40=1/2;
 3/5=44,7=101,11=2,25=1,30=1,70=2201,71=2,72=1,74=-13,75=99590,124=31,140=1/1,2,3;
 4//1;
 5/5=2,38=5,53=1/2;
 8/6=4,10=90,11=11/1;
 11/6=1,8=1,9=11,15=111,16=1/1,2,10;
 10/6=1,13=1/2;
 6/7=2,8=2,9=2,10=2,28=1/1;
 7/10=1,18=20,25=1/1,2,3,16;
 1/5=1,10=4,11=1,18=20,26=6/3(2);
 2/9=110/2;
 99//99;
 2/9=110/2;
 3/5=44,7=101,11=2,25=1,30=1,70=2205,71=1,72=1,74=-13,75=99590,124=31/1,2,3;
 4/5=5,16=3,69=1/1;
 5/5=2,38=5,53=1/2;
 7//1,2,3,16;
 1/5=1,11=1,18=20,26=6/3(-5);
 2/9=110/2;
 6/7=2,8=2,9=2,10=2,19=2,28=1/1;
 99/9=1/99;
 Leave Link    1 at Thu Aug 29 04:51:57 2024, MaxMem=  8589934592 cpu:               0.6 elap:               0.0
 (Enter /share/apps/g16.b01_avx2/g16/l101.exe)
 -------------------
 pfp-betaC_ester ts1
 -------------------
 Symbolic Z-matrix:
 Charge =  0 Multiplicity = 1
 H                    -2.32657   1.6415    0.16261 
 O                    -1.82377  -0.72564   1.24022 
 C                    -2.25774  -0.58416   0.10109 
 N                    -3.09036   0.98771   0.02173 
 H                    -3.43878   1.13929  -0.92016 
 C                    -4.12976   1.15763   1.03776 
 H                    -5.02708   0.61666   0.7535 
 H                    -3.75319   0.75212   1.97633 
 H                    -4.3764    2.21118   1.17101 
 C                    -3.25176  -1.51776  -0.5476 
 H                    -4.17552  -1.55471   0.0244 
 H                    -3.47395  -1.2359   -1.57636 
 O                    -1.25866  -0.2855   -0.97109 
 C                     0.00867  -0.13136  -0.55521 
 C                     0.58166   1.13112  -0.45166 
 C                     0.81427  -1.22603  -0.25672 
 C                     1.90334   1.30492  -0.08103 
 C                     2.13532  -1.06893   0.12258 
 C                     2.68342   0.19976   0.21041 
 F                    -0.15878   2.20851  -0.71158 
 F                     0.31675  -2.45299  -0.35147 
 F                     2.42292   2.52395   0.00314 
 F                     2.88397  -2.13066   0.39819 
 F                     3.95125   0.35432   0.56926 
 C                    -2.6228   -2.92344  -0.53973 
 H                    -1.93479  -3.0109   -1.35452 
 H                    -2.10384  -3.07681   0.38334 
 H                    -3.39278  -3.65928  -0.64254 
 
 Add virtual bond connecting atoms N4         and C3         Dist= 3.36D+00.
 ITRead=  0  0  0  0  0  0  0  0  0  0  0  0  0  0  0  0  0  0  0  0
 ITRead=  0  0  0  0  0  0  0  0
 MicOpt= -1 -1 -1 -1 -1 -1 -1 -1 -1 -1 -1 -1 -1 -1 -1 -1 -1 -1 -1 -1
 MicOpt= -1 -1 -1 -1 -1 -1 -1 -1
 NAtoms=     28 NQM=       28 NQMF=       0 NMMI=      0 NMMIF=      0
                NMic=       0 NMicF=      0.
                    Isotopes and Nuclear Properties:
 (Nuclear quadrupole moments (NQMom) in fm**2, nuclear magnetic moments (NMagM)
  in nuclear magnetons)

  Atom         1           2           3           4           5           6           7           8           9          10
 IAtWgt=           1          16          12          14           1          12           1           1           1          12
 AtmWgt=   1.0078250  15.9949146  12.0000000  14.0030740   1.0078250  12.0000000   1.0078250   1.0078250   1.0078250  12.0000000
 NucSpn=           1           0           0           2           1           0           1           1           1           0
 AtZEff=  -0.0000000  -0.0000000  -0.0000000  -0.0000000  -0.0000000  -0.0000000  -0.0000000  -0.0000000  -0.0000000  -0.0000000
 NQMom=    0.0000000   0.0000000   0.0000000   2.0440000   0.0000000   0.0000000   0.0000000   0.0000000   0.0000000   0.0000000
 NMagM=    2.7928460   0.0000000   0.0000000   0.4037610   2.7928460   0.0000000   2.7928460   2.7928460   2.7928460   0.0000000
 AtZNuc=   1.0000000   8.0000000   6.0000000   7.0000000   1.0000000   6.0000000   1.0000000   1.0000000   1.0000000   6.0000000

  Atom        11          12          13          14          15          16          17          18          19          20
 IAtWgt=           1           1          16          12          12          12          12          12          12          19
 AtmWgt=   1.0078250   1.0078250  15.9949146  12.0000000  12.0000000  12.0000000  12.0000000  12.0000000  12.0000000  18.9984032
 NucSpn=           1           1           0           0           0           0           0           0           0           1
 AtZEff=  -0.0000000  -0.0000000  -0.0000000  -0.0000000  -0.0000000  -0.0000000  -0.0000000  -0.0000000  -0.0000000  -0.0000000
 NQMom=    0.0000000   0.0000000   0.0000000   0.0000000   0.0000000   0.0000000   0.0000000   0.0000000   0.0000000   0.0000000
 NMagM=    2.7928460   2.7928460   0.0000000   0.0000000   0.0000000   0.0000000   0.0000000   0.0000000   0.0000000   2.6288670
 AtZNuc=   1.0000000   1.0000000   8.0000000   6.0000000   6.0000000   6.0000000   6.0000000   6.0000000   6.0000000   9.0000000

  Atom        21          22          23          24          25          26          27          28
 IAtWgt=          19          19          19          19          12           1           1           1
 AtmWgt=  18.9984032  18.9984032  18.9984032  18.9984032  12.0000000   1.0078250   1.0078250   1.0078250
 NucSpn=           1           1           1           1           0           1           1           1
 AtZEff=  -0.0000000  -0.0000000  -0.0000000  -0.0000000  -0.0000000  -0.0000000  -0.0000000  -0.0000000
 NQMom=    0.0000000   0.0000000   0.0000000   0.0000000   0.0000000   0.0000000   0.0000000   0.0000000
 NMagM=    2.6288670   2.6288670   2.6288670   2.6288670   0.0000000   2.7928460   2.7928460   2.7928460
 AtZNuc=   9.0000000   9.0000000   9.0000000   9.0000000   6.0000000   1.0000000   1.0000000   1.0000000
 Leave Link  101 at Thu Aug 29 04:51:57 2024, MaxMem=  8589934592 cpu:               6.6 elap:               0.3
 (Enter /share/apps/g16.b01_avx2/g16/l103.exe)

 GradGradGradGradGradGradGradGradGradGradGradGradGradGradGradGradGradGrad
 Berny optimization.
 Initialization pass.
                           ----------------------------
                           !    Initial Parameters    !
                           ! (Angstroms and Degrees)  !
 --------------------------                            --------------------------
 ! Name  Definition              Value          Derivative Info.                !
 --------------------------------------------------------------------------------
 ! R1    R(1,4)                  1.0152         calculate D2E/DX2 analytically  !
 ! R2    R(2,3)                  1.2272         calculate D2E/DX2 analytically  !
 ! R3    R(3,4)                  1.7805         calculate D2E/DX2 analytically  !
 ! R4    R(3,10)                 1.5101         calculate D2E/DX2 analytically  !
 ! R5    R(3,13)                 1.4956         calculate D2E/DX2 analytically  !
 ! R6    R(4,5)                  1.0156         calculate D2E/DX2 analytically  !
 ! R7    R(4,6)                  1.4634         calculate D2E/DX2 analytically  !
 ! R8    R(6,7)                  1.0856         calculate D2E/DX2 analytically  !
 ! R9    R(6,8)                  1.0896         calculate D2E/DX2 analytically  !
 ! R10   R(6,9)                  1.0902         calculate D2E/DX2 analytically  !
 ! R11   R(10,11)                1.0871         calculate D2E/DX2 analytically  !
 ! R12   R(10,12)                1.0896         calculate D2E/DX2 analytically  !
 ! R13   R(10,25)                1.54           calculate D2E/DX2 analytically  !
 ! R14   R(13,14)                1.3427         calculate D2E/DX2 analytically  !
 ! R15   R(14,15)                1.3903         calculate D2E/DX2 analytically  !
 ! R16   R(14,16)                1.3915         calculate D2E/DX2 analytically  !
 ! R17   R(15,17)                1.3836         calculate D2E/DX2 analytically  !
 ! R18   R(15,20)                1.3329         calculate D2E/DX2 analytically  !
 ! R19   R(16,18)                1.3834         calculate D2E/DX2 analytically  !
 ! R20   R(16,21)                1.3274         calculate D2E/DX2 analytically  !
 ! R21   R(17,19)                1.3838         calculate D2E/DX2 analytically  !
 ! R22   R(17,22)                1.3278         calculate D2E/DX2 analytically  !
 ! R23   R(18,19)                1.3848         calculate D2E/DX2 analytically  !
 ! R24   R(18,23)                1.328          calculate D2E/DX2 analytically  !
 ! R25   R(19,24)                1.3267         calculate D2E/DX2 analytically  !
 ! R26   R(25,26)                1.07           calculate D2E/DX2 analytically  !
 ! R27   R(25,27)                1.07           calculate D2E/DX2 analytically  !
 ! R28   R(25,28)                1.07           calculate D2E/DX2 analytically  !
 ! A1    A(2,3,4)              107.9698         calculate D2E/DX2 analytically  !
 ! A2    A(2,3,10)             124.0725         calculate D2E/DX2 analytically  !
 ! A3    A(2,3,13)             116.8869         calculate D2E/DX2 analytically  !
 ! A4    A(4,3,10)             102.6399         calculate D2E/DX2 analytically  !
 ! A5    A(4,3,13)              95.977          calculate D2E/DX2 analytically  !
 ! A6    A(10,3,13)            104.7864         calculate D2E/DX2 analytically  !
 ! A7    A(1,4,3)              102.1534         calculate D2E/DX2 analytically  !
 ! A8    A(1,4,5)              106.8978         calculate D2E/DX2 analytically  !
 ! A9    A(1,4,6)              111.2992         calculate D2E/DX2 analytically  !
 ! A10   A(3,4,5)              109.4823         calculate D2E/DX2 analytically  !
 ! A11   A(3,4,6)              113.8094         calculate D2E/DX2 analytically  !
 ! A12   A(5,4,6)              112.5123         calculate D2E/DX2 analytically  !
 ! A13   A(4,6,7)              110.3289         calculate D2E/DX2 analytically  !
 ! A14   A(4,6,8)              108.0218         calculate D2E/DX2 analytically  !
 ! A15   A(4,6,9)              110.9623         calculate D2E/DX2 analytically  !
 ! A16   A(7,6,8)              109.0111         calculate D2E/DX2 analytically  !
 ! A17   A(7,6,9)              109.0598         calculate D2E/DX2 analytically  !
 ! A18   A(8,6,9)              109.4245         calculate D2E/DX2 analytically  !
 ! A19   A(3,10,11)            110.7514         calculate D2E/DX2 analytically  !
 ! A20   A(3,10,12)            112.3267         calculate D2E/DX2 analytically  !
 ! A21   A(3,10,25)            107.0541         calculate D2E/DX2 analytically  !
 ! A22   A(11,10,12)           109.4088         calculate D2E/DX2 analytically  !
 ! A23   A(11,10,25)           108.2595         calculate D2E/DX2 analytically  !
 ! A24   A(12,10,25)           108.9191         calculate D2E/DX2 analytically  !
 ! A25   A(3,13,14)            115.5556         calculate D2E/DX2 analytically  !
 ! A26   A(13,14,15)           121.0857         calculate D2E/DX2 analytically  !
 ! A27   A(13,14,16)           121.504          calculate D2E/DX2 analytically  !
 ! A28   A(15,14,16)           117.3723         calculate D2E/DX2 analytically  !
 ! A29   A(14,15,17)           121.8508         calculate D2E/DX2 analytically  !
 ! A30   A(14,15,20)           119.3755         calculate D2E/DX2 analytically  !
 ! A31   A(17,15,20)           118.7734         calculate D2E/DX2 analytically  !
 ! A32   A(14,16,18)           121.4881         calculate D2E/DX2 analytically  !
 ! A33   A(14,16,21)           119.6596         calculate D2E/DX2 analytically  !
 ! A34   A(18,16,21)           118.847          calculate D2E/DX2 analytically  !
 ! A35   A(15,17,19)           119.6426         calculate D2E/DX2 analytically  !
 ! A36   A(15,17,22)           120.4039         calculate D2E/DX2 analytically  !
 ! A37   A(19,17,22)           119.9524         calculate D2E/DX2 analytically  !
 ! A38   A(16,18,19)           119.9596         calculate D2E/DX2 analytically  !
 ! A39   A(16,18,23)           120.2943         calculate D2E/DX2 analytically  !
 ! A40   A(19,18,23)           119.7455         calculate D2E/DX2 analytically  !
 ! A41   A(17,19,18)           119.6832         calculate D2E/DX2 analytically  !
 ! A42   A(17,19,24)           120.1759         calculate D2E/DX2 analytically  !
 ! A43   A(18,19,24)           120.1407         calculate D2E/DX2 analytically  !
 ! A44   A(10,25,26)           109.4712         calculate D2E/DX2 analytically  !
 ! A45   A(10,25,27)           109.4712         calculate D2E/DX2 analytically  !
 ! A46   A(10,25,28)           109.4712         calculate D2E/DX2 analytically  !
 ! A47   A(26,25,27)           109.4713         calculate D2E/DX2 analytically  !
 ! A48   A(26,25,28)           109.4712         calculate D2E/DX2 analytically  !
 ! A49   A(27,25,28)           109.4712         calculate D2E/DX2 analytically  !
 ! D1    D(2,3,4,1)             65.5037         calculate D2E/DX2 analytically  !
 ! D2    D(2,3,4,5)            178.5561         calculate D2E/DX2 analytically  !
 ! D3    D(2,3,4,6)            -54.5728         calculate D2E/DX2 analytically  !
 ! D4    D(10,3,4,1)          -161.9384         calculate D2E/DX2 analytically  !
 ! D5    D(10,3,4,5)           -48.886          calculate D2E/DX2 analytically  !
 ! D6    D(10,3,4,6)            77.9851         calculate D2E/DX2 analytically  !
 ! D7    D(13,3,4,1)           -55.292          calculate D2E/DX2 analytically  !
 ! D8    D(13,3,4,5)            57.7604         calculate D2E/DX2 analytically  !
 ! D9    D(13,3,4,6)          -175.3685         calculate D2E/DX2 analytically  !
 ! D10   D(2,3,10,11)           59.7405         calculate D2E/DX2 analytically  !
 ! D11   D(2,3,10,12)         -177.5922         calculate D2E/DX2 analytically  !
 ! D12   D(2,3,10,25)          -58.0798         calculate D2E/DX2 analytically  !
 ! D13   D(4,3,10,11)          -62.4938         calculate D2E/DX2 analytically  !
 ! D14   D(4,3,10,12)           60.1735         calculate D2E/DX2 analytically  !
 ! D15   D(4,3,10,25)          179.6859         calculate D2E/DX2 analytically  !
 ! D16   D(13,3,10,11)        -162.2564         calculate D2E/DX2 analytically  !
 ! D17   D(13,3,10,12)         -39.589          calculate D2E/DX2 analytically  !
 ! D18   D(13,3,10,25)          79.9233         calculate D2E/DX2 analytically  !
 ! D19   D(2,3,13,14)           -3.4956         calculate D2E/DX2 analytically  !
 ! D20   D(4,3,13,14)          110.1379         calculate D2E/DX2 analytically  !
 ! D21   D(10,3,13,14)        -145.0772         calculate D2E/DX2 analytically  !
 ! D22   D(1,4,6,7)            167.474          calculate D2E/DX2 analytically  !
 ! D23   D(1,4,6,8)            -73.4581         calculate D2E/DX2 analytically  !
 ! D24   D(1,4,6,9)             46.4856         calculate D2E/DX2 analytically  !
 ! D25   D(3,4,6,7)            -77.7537         calculate D2E/DX2 analytically  !
 ! D26   D(3,4,6,8)             41.3142         calculate D2E/DX2 analytically  !
 ! D27   D(3,4,6,9)            161.2579         calculate D2E/DX2 analytically  !
 ! D28   D(5,4,6,7)             47.5206         calculate D2E/DX2 analytically  !
 ! D29   D(5,4,6,8)            166.5885         calculate D2E/DX2 analytically  !
 ! D30   D(5,4,6,9)            -73.4678         calculate D2E/DX2 analytically  !
 ! D31   D(3,10,25,26)         -80.8475         calculate D2E/DX2 analytically  !
 ! D32   D(3,10,25,27)          39.1525         calculate D2E/DX2 analytically  !
 ! D33   D(3,10,25,28)         159.1525         calculate D2E/DX2 analytically  !
 ! D34   D(11,10,25,26)        159.715          calculate D2E/DX2 analytically  !
 ! D35   D(11,10,25,27)        -80.285          calculate D2E/DX2 analytically  !
 ! D36   D(11,10,25,28)         39.715          calculate D2E/DX2 analytically  !
 ! D37   D(12,10,25,26)         40.8339         calculate D2E/DX2 analytically  !
 ! D38   D(12,10,25,27)        160.8339         calculate D2E/DX2 analytically  !
 ! D39   D(12,10,25,28)        -79.1661         calculate D2E/DX2 analytically  !
 ! D40   D(3,13,14,15)        -103.5116         calculate D2E/DX2 analytically  !
 ! D41   D(3,13,14,16)          78.7882         calculate D2E/DX2 analytically  !
 ! D42   D(13,14,15,17)       -177.1331         calculate D2E/DX2 analytically  !
 ! D43   D(13,14,15,20)          3.068          calculate D2E/DX2 analytically  !
 ! D44   D(16,14,15,17)          0.6589         calculate D2E/DX2 analytically  !
 ! D45   D(16,14,15,20)       -179.14           calculate D2E/DX2 analytically  !
 ! D46   D(13,14,16,18)        177.4962         calculate D2E/DX2 analytically  !
 ! D47   D(13,14,16,21)         -1.6568         calculate D2E/DX2 analytically  !
 ! D48   D(15,14,16,18)         -0.2859         calculate D2E/DX2 analytically  !
 ! D49   D(15,14,16,21)       -179.4389         calculate D2E/DX2 analytically  !
 ! D50   D(14,15,17,19)         -0.6664         calculate D2E/DX2 analytically  !
 ! D51   D(14,15,17,22)        179.7045         calculate D2E/DX2 analytically  !
 ! D52   D(20,15,17,19)        179.1338         calculate D2E/DX2 analytically  !
 ! D53   D(20,15,17,22)         -0.4954         calculate D2E/DX2 analytically  !
 ! D54   D(14,16,18,19)         -0.0743         calculate D2E/DX2 analytically  !
 ! D55   D(14,16,18,23)       -179.795          calculate D2E/DX2 analytically  !
 ! D56   D(21,16,18,19)        179.0854         calculate D2E/DX2 analytically  !
 ! D57   D(21,16,18,23)         -0.6353         calculate D2E/DX2 analytically  !
 ! D58   D(15,17,19,18)          0.2809         calculate D2E/DX2 analytically  !
 ! D59   D(15,17,19,24)       -179.8754         calculate D2E/DX2 analytically  !
 ! D60   D(22,17,19,18)        179.9118         calculate D2E/DX2 analytically  !
 ! D61   D(22,17,19,24)         -0.2446         calculate D2E/DX2 analytically  !
 ! D62   D(16,18,19,17)          0.0802         calculate D2E/DX2 analytically  !
 ! D63   D(16,18,19,24)       -179.7635         calculate D2E/DX2 analytically  !
 ! D64   D(23,18,19,17)        179.8024         calculate D2E/DX2 analytically  !
 ! D65   D(23,18,19,24)         -0.0413         calculate D2E/DX2 analytically  !
 --------------------------------------------------------------------------------
 Trust Radius=3.00D-01 FncErr=5.00D-06 GrdErr=5.00D-06 EigMax=2.50D+02 EigMin=1.00D-04
 Number of steps in this run=    152 maximum allowed number of steps=    168.
 Search for a saddle point of order  1.
 GradGradGradGradGradGradGradGradGradGradGradGradGradGradGradGradGradGrad

 Leave Link  103 at Thu Aug 29 04:51:57 2024, MaxMem=  8589934592 cpu:               0.1 elap:               0.0
 (Enter /share/apps/g16.b01_avx2/g16/l202.exe)
                          Input orientation:                          
 ---------------------------------------------------------------------
 Center     Atomic      Atomic             Coordinates (Angstroms)
 Number     Number       Type             X           Y           Z
 ---------------------------------------------------------------------
      1          1           0       -2.326566    1.641504    0.162606
      2          8           0       -1.823772   -0.725639    1.240224
      3          6           0       -2.257745   -0.584160    0.101089
      4          7           0       -3.090357    0.987705    0.021728
      5          1           0       -3.438781    1.139293   -0.920164
      6          6           0       -4.129761    1.157628    1.037757
      7          1           0       -5.027080    0.616655    0.753504
      8          1           0       -3.753187    0.752118    1.976328
      9          1           0       -4.376399    2.211177    1.171006
     10          6           0       -3.251764   -1.517757   -0.547600
     11          1           0       -4.175523   -1.554709    0.024398
     12          1           0       -3.473947   -1.235900   -1.576364
     13          8           0       -1.258660   -0.285496   -0.971088
     14          6           0        0.008670   -0.131356   -0.555206
     15          6           0        0.581659    1.131115   -0.451657
     16          6           0        0.814272   -1.226032   -0.256722
     17          6           0        1.903338    1.304921   -0.081032
     18          6           0        2.135320   -1.068935    0.122576
     19          6           0        2.683421    0.199763    0.210406
     20          9           0       -0.158784    2.208505   -0.711581
     21          9           0        0.316746   -2.452994   -0.351468
     22          9           0        2.422915    2.523947    0.003140
     23          9           0        2.883973   -2.130662    0.398185
     24          9           0        3.951251    0.354320    0.569262
     25          6           0       -2.622804   -2.923441   -0.539729
     26          1           0       -1.934786   -3.010902   -1.354520
     27          1           0       -2.103838   -3.076812    0.383337
     28          1           0       -3.392782   -3.659283   -0.642537
 ---------------------------------------------------------------------
                    Distance matrix (angstroms):
                    1          2          3          4          5
     1  H    0.000000
     2  O    2.649043   0.000000
     3  C    2.227577   1.227183   0.000000
     4  N    1.015222   2.454489   1.780534   0.000000
     5  H    1.631450   3.279253   2.325531   1.015647   0.000000
     6  C    2.061926   2.984170   2.723163   1.463403   2.076354
     7  H    2.948263   3.507112   3.088174   2.103347   2.365800
     8  H    2.473023   2.539342   2.745634   2.077331   2.939119
     9  H    2.354403   3.891733   3.667060   2.114622   2.530031
    10  C    3.367687   2.421348   1.510124   2.574398   2.689553
    11  H    3.695067   2.774225   2.150749   2.764319   2.948327
    12  H    3.552457   3.304030   2.172041   2.765042   2.464422
    13  O    2.477703   2.324431   1.495639   2.441688   2.604908
    14  C    3.018545   2.633360   2.402580   3.345014   3.692243
    15  C    3.015889   3.477944   3.363021   3.705180   4.047654
    16  C    4.273577   3.074169   3.158689   4.497143   4.911556
    17  C    4.250263   4.445249   4.573446   5.004815   5.410158
    18  C    5.220777   4.128123   4.419784   5.616728   6.085571
    19  C    5.213528   4.715049   5.004159   5.830349   6.296210
    20  F    2.405197   3.897554   3.586788   3.259174   3.456169
    21  F    4.900641   3.177901   3.213309   4.856546   5.227994
    22  F    4.833395   5.488582   5.619475   5.723334   6.093376
    23  F    6.436960   4.984574   5.377471   6.749708   7.239328
    24  F    6.421308   5.913323   6.296949   7.091207   7.579390
    25  C    4.628148   2.938880   2.452784   3.978807   4.161292
    26  H    4.909180   3.459400   2.848188   4.383864   4.435627
    27  H    4.728725   2.518076   2.513298   4.198129   4.610503
    28  H    5.466573   3.822676   3.361201   4.703957   4.806821
                    6          7          8          9         10
     6  C    0.000000
     7  H    1.085649   0.000000
     8  H    1.089570   1.771003   0.000000
     9  H    1.090207   1.772059   1.779267   0.000000
    10  C    3.231396   3.065996   3.431322   4.257154   0.000000
    11  H    2.895818   2.443679   3.051205   3.941695   1.087142
    12  H    3.604538   3.357449   4.080663   4.499422   1.089571
    13  O    3.789629   4.241354   3.998321   4.532355   2.381233
    14  C    4.617967   5.256522   4.619606   5.262708   3.542964
    15  C    4.941309   5.759777   4.982935   5.327467   4.660564
    16  C    5.639235   6.207854   5.455389   6.387165   4.086852
    17  C    6.137725   7.014332   6.044386   6.467147   5.895784
    18  C    6.711660   7.385070   6.436392   7.366195   5.447132
    19  C    6.929752   7.740838   6.697275   7.403350   6.225020
    20  F    4.464659   5.327360   4.718649   4.618703   4.845456
    21  F    5.893892   6.261005   5.679413   6.789553   3.694239
    22  F    6.773096   7.726787   6.721390   6.905969   6.988610
    23  F    7.772668   8.382050   7.406271   8.494811   6.238384
    24  F    8.134344   8.984052   7.841967   8.553348   7.525655
    25  C    4.627581   4.470489   4.595437   5.689113   1.540000
    26  H    5.283706   5.212026   5.344291   6.293637   2.148263
    27  H    4.739527   4.724836   4.463035   5.809285   2.148263
    28  H    5.154528   4.785761   5.142841   6.222439   2.148263
                   11         12         13         14         15
    11  H    0.000000
    12  H    1.776594   0.000000
    13  O    3.333164   2.485382   0.000000
    14  C    4.457504   3.793600   1.342700   0.000000
    15  C    5.483709   4.828630   2.379783   1.390278   0.000000
    16  C    5.008504   4.486689   2.385786   1.391547   2.376605
    17  C    6.718716   6.132453   3.649638   2.424355   1.383621
    18  C    6.330273   5.863288   3.650887   2.420967   2.753875
    19  C    7.082223   6.570149   4.143840   2.801802   2.392310
    20  F    5.553165   4.858197   2.738085   2.351052   1.332886
    21  F    4.596594   4.165458   2.750251   2.350835   3.595282
    22  F    7.757272   7.169677   4.732450   3.631937   2.353093
    23  F    7.092808   6.717335   4.737188   3.629538   4.081920
    24  F    8.365747   7.890886   5.470394   4.128469   3.605529
    25  C    2.145368   2.155655   3.000952   3.836747   5.168729
    26  H    3.007127   2.359844   2.834080   3.564788   4.929905
    27  H    2.595673   3.017712   3.215624   3.744231   5.061202
    28  H    2.342375   2.598347   4.005604   4.901405   6.227401
                   16         17         18         19         20
    16  C    0.000000
    17  C    2.760916   0.000000
    18  C    1.383371   2.393839   0.000000
    19  C    2.396835   1.383777   1.384819   0.000000
    20  F    3.598580   2.338034   4.086605   3.600449   0.000000
    21  F    1.327383   4.088072   2.333998   3.599163   4.699509
    22  F    4.088717   1.327806   3.606352   2.347904   2.697313
    23  F    2.351791   3.604792   1.328046   2.346564   5.414640
    24  F    3.608379   2.349569   2.350061   1.326672   4.687318
    25  C    3.843797   6.210910   5.149522   6.202671   5.695419
    26  H    3.456623   5.914330   4.745399   5.838254   5.550655
    27  H    3.514318   5.955895   4.697875   5.803766   5.737304
    28  H    4.875332   7.280625   6.152659   7.248447   6.700332
                   21         22         23         24         25
    21  F    0.000000
    22  F    5.415869   0.000000
    23  F    2.693795   4.694041   0.000000
    24  F    4.683843   2.713593   2.709887   0.000000
    25  C    2.982904   7.444999   5.642054   7.429116   0.000000
    26  H    2.527206   7.174075   5.202618   7.047772   1.070000
    27  H    2.605439   7.211418   5.076778   6.962136   1.070000
    28  H    3.911579   8.513023   6.543503   8.456494   1.070000
                   26         27         28
    26  H    0.000000
    27  H    1.747303   0.000000
    28  H    1.747303   1.747303   0.000000
 Stoichiometry    C10H10F5NO2
 Framework group  C1[X(C10H10F5NO2)]
 Deg. of freedom    78
 Full point group                 C1      NOp   1
 Largest Abelian subgroup         C1      NOp   1
 Largest concise Abelian subgroup C1      NOp   1
                         Standard orientation:                         
 ---------------------------------------------------------------------
 Center     Atomic      Atomic             Coordinates (Angstroms)
 Number     Number       Type             X           Y           Z
 ---------------------------------------------------------------------
      1          1           0        1.933068   -2.084259    0.144584
      2          8           0        1.711724    0.284837    1.308980
      3          6           0        2.141863    0.133370    0.169676
      4          7           0        2.774109   -1.525858    0.037273
      5          1           0        3.115151   -1.684114   -0.906223
      6          6           0        3.769007   -1.862041    1.056443
      7          1           0        4.730684   -1.426744    0.802818
      8          1           0        3.431591   -1.448390    2.006288
      9          1           0        3.880988   -2.942369    1.150800
     10          6           0        3.253676    0.959621   -0.431703
     11          1           0        4.166178    0.859668    0.150729
     12          1           0        3.454609    0.691197   -1.468399
     13          8           0        1.129672    0.002041   -0.923556
     14          6           0       -0.153097   -0.008576   -0.527030
     15          6           0       -0.879792   -1.192836   -0.478929
     16          6           0       -0.821046    1.165910   -0.194117
     17          6           0       -2.218244   -1.214478   -0.128950
     18          6           0       -2.156929    1.160430    0.165189
     19          6           0       -2.859468   -0.032513    0.197594
     20          9           0       -0.274926   -2.343517   -0.773303
     21          9           0       -0.173761    2.324032   -0.235587
     22          9           0       -2.886264   -2.361587   -0.097960
     23          9           0       -2.772120    2.296013    0.474537
     24          9           0       -4.141928   -0.041335    0.537120
     25          6           0        2.803940    2.431403   -0.375163
     26          1           0        2.144418    2.634483   -1.192897
     27          1           0        2.294198    2.613379    0.547847
     28          1           0        3.660727    3.068946   -0.441155
 ---------------------------------------------------------------------
 Rotational constants (GHZ):           0.6459674           0.2984170           0.2219242
 Leave Link  202 at Thu Aug 29 04:51:57 2024, MaxMem=  8589934592 cpu:               0.1 elap:               0.0
 (Enter /share/apps/g16.b01_avx2/g16/l301.exe)
 Standard basis: def2TZVP (5D, 7F)
 Ernie: Thresh=  0.10000D-02 Tol=  0.10000D-05 Strict=F.
 There are   708 symmetry adapted cartesian basis functions of A   symmetry.
 There are   618 symmetry adapted basis functions of A   symmetry.
   618 basis functions,   998 primitive gaussians,   708 cartesian basis functions
    69 alpha electrons       69 beta electrons
       nuclear repulsion energy      1487.0139875033 Hartrees.
 IExCor= 1009 DFT=T Ex+Corr=PBE1PBE ExCW=0 ScaHFX=  0.250000
 ScaDFX=  0.750000  0.750000  1.000000  1.000000 ScalE2=  1.000000  1.000000
 IRadAn=  99590 IRanWt=     -1 IRanGd=            0 ICorTp=0 IEmpDi=131
 NAtoms=   28 NActive=   28 NUniq=   28 SFac= 1.00D+00 NAtFMM=   60 NAOKFM=F Big=F
 Integral buffers will be    131072 words long.
 Raffenetti 2 integral format.
 Two-electron integral symmetry is turned on.
 R6Disp:  Grimme-D3 Dispersion energy=       -0.0185711502 Hartrees.
 Nuclear repulsion after empirical dispersion term =     1486.9954163531 Hartrees.
 Force inversion solution in PCM.
 ------------------------------------------------------------------------------
 Polarizable Continuum Model (PCM)
 =================================
 Model                : PCM.
 Atomic radii         : UFF (Universal Force Field).
 Polarization charges : Total charges.
 Charge compensation  : None.
 Solution method      : Matrix inversion.
 Cavity type          : Scaled VdW (van der Waals Surface) (Alpha=1.100).
 Cavity algorithm     : GePol (No added spheres)
                        Default sphere list used, NSphG=   28.
                        Lebedev-Laikov grids with approx.  5.0 points / Ang**2.
                        Smoothing algorithm: York/Karplus (Gamma=1.0000).
                        Polarization charges: spherical gaussians, with
                                              point-specific exponents (IZeta= 3).
                        Self-potential: point-specific (ISelfS= 7).
                        Self-field    : sphere-specific E.n sum rule (ISelfD= 2).
 1st derivatives      : Analytical E(r).r(x)/FMM algorithm (CHGder, D1EAlg=3).
                        Cavity 1st derivative terms included.
 2nd derivatives      : Analytical E(r).r(xy)/FMM algorithm (CHGder, D2EAlg=3).
                        Cavity 2nd derivative terms included.
 Solvent              : Water, Eps=  78.355300 Eps(inf)=   1.777849
 ------------------------------------------------------------------------------
 GePol: Number of generator spheres                  =      28
 GePol: Total number of spheres                      =      28
 GePol: Number of exposed spheres                    =      28 (100.00%)
 GePol: Number of points                             =    2251
 GePol: Average weight of points                     =       0.13
 GePol: Minimum weight of points                     =   0.12D-09
 GePol: Maximum weight of points                     =    0.20577
 GePol: Number of points with low weight             =     129
 GePol: Fraction of low-weight points (<1% of avg)   =       5.73%
 GePol: Cavity surface area                          =    288.629 Ang**2
 GePol: Cavity volume                                =    309.832 Ang**3
 Leave Link  301 at Thu Aug 29 04:51:57 2024, MaxMem=  8589934592 cpu:               0.7 elap:               0.0
 (Enter /share/apps/g16.b01_avx2/g16/l302.exe)
 NPDir=0 NMtPBC=     1 NCelOv=     1 NCel=       1 NClECP=     1 NCelD=      1
         NCelK=      1 NCelE2=     1 NClLst=     1 CellRange=     0.0.
 One-electron integrals computed using PRISM.
 One-electron integral symmetry used in STVInt
   1 Symmetry operations used in ECPInt.
 ECPInt:  NShTT=   28441 NPrTT=   88836 LenC2=   25148 LenP2D=   56326.
 LDataN:  DoStor=T MaxTD1= 6 Len=  172
 NBasis=   618 RedAO= T EigKep=  1.43D-05  NBF=   618
 NBsUse=   618 1.00D-06 EigRej= -1.00D+00 NBFU=   618
 Precomputing XC quadrature grid using
 IXCGrd= 4 IRadAn=       99590 IRanWt=          -1 IRanGd=           0 AccXCQ= 0.00D+00.
 Generated NRdTot=       0 NPtTot=           0 NUsed=           0 NTot=          32
 NSgBfM=   699   699   699   699   699 MxSgAt=    28 MxSgA2=    28.
 Leave Link  302 at Thu Aug 29 04:51:58 2024, MaxMem=  8589934592 cpu:              11.1 elap:               0.5
 (Enter /share/apps/g16.b01_avx2/g16/l303.exe)
 DipDrv:  MaxL=1.
 Leave Link  303 at Thu Aug 29 04:51:58 2024, MaxMem=  8589934592 cpu:               1.3 elap:               0.1
 (Enter /share/apps/g16.b01_avx2/g16/l401.exe)
 ExpMin= 9.52D-02 ExpMax= 3.55D+04 ExpMxC= 1.21D+03 IAcc=4 IRadAn=    199590 AccDes= 0.00D+00
 Harris functional with IExCor= 1009 and IRadAn=  199590 diagonalized for initial guess.
 HarFok:  IExCor= 1009 AccDes= 0.00D+00 IRadAn=    199590 IDoV= 1 UseB2=F ITyADJ=14
 ICtDFT=  3500011 ScaDFX=  1.000000  1.000000  1.000000  1.000000
 FoFCou: FMM=F IPFlag=           0 FMFlag=      100000 FMFlg1=           0
         NFxFlg=           0 DoJE=T BraDBF=F KetDBF=T FulRan=T
         wScrn=  0.000000 ICntrl=       500 IOpCl=  0 I1Cent=   200000004 NGrid=           0
         NMat0=    1 NMatS0=      1 NMatT0=    0 NMatD0=    1 NMtDS0=    0 NMtDT0=    0
 Petite list used in FoFCou.
 Harris En= -1090.88664611548    
 JPrj=0 DoOrth=F DoCkMO=F.
 Leave Link  401 at Thu Aug 29 04:52:01 2024, MaxMem=  8589934592 cpu:              75.3 elap:               3.1
 (Enter /share/apps/g16.b01_avx2/g16/l502.exe)
 Integral symmetry usage will be decided dynamically.
 Closed shell SCF:
 Using DIIS extrapolation, IDIIS=  1040.
 NGot=  8589934592 LenX=  8588908934 LenY=  8588406962
 Requested convergence on RMS density matrix=1.00D-08 within 128 cycles.
 Requested convergence on MAX density matrix=1.00D-06.
 Requested convergence on             energy=1.00D-06.
 No special actions if energy rises.
 Fock matrices will be formed incrementally for  20 cycles.

 Cycle   1  Pass 1  IDiag  1:
 FoFJK:  IHMeth= 1 ICntrl=       0 DoSepK=F KAlg= 0 I1Cent=           0 FoldK=F
 IRaf= 820000000 NMat=       1 IRICut=       1 DoRegI=T DoRafI=F ISym2E= 0 IDoP0=0 IntGTp=1.
 FoFCou: FMM=F IPFlag=           0 FMFlag=      100000 FMFlg1=           0
         NFxFlg=           0 DoJE=F BraDBF=F KetDBF=F FulRan=T
         wScrn=  0.000000 ICntrl=         0 IOpCl=  0 I1Cent=           0 NGrid=           0
         NMat0=    1 NMatS0=      1 NMatT0=    0 NMatD0=    1 NMtDS0=    0 NMtDT0=    0
 Symmetry not used in FoFCou.
 Inv3:  Mode=1 IEnd=    15201003.
 Iteration    1 A*A^-1 deviation from unit magnitude is 3.77D-15 for   1407.
 Iteration    1 A*A^-1 deviation from orthogonality  is 1.67D-15 for   2200   1729.
 Iteration    1 A^-1*A deviation from unit magnitude is 3.55D-15 for    113.
 Iteration    1 A^-1*A deviation from orthogonality  is 3.37D-14 for   1800   1752.
 E= -1090.45814388156    
 DIIS: error= 1.69D-02 at cycle   1 NSaved=   1.
 NSaved= 1 IEnMin= 1 EnMin= -1090.45814388156     IErMin= 1 ErrMin= 1.69D-02
 ErrMax= 1.69D-02  0.00D+00 EMaxC= 1.00D-01 BMatC= 4.06D-01 BMatP= 4.06D-01
 IDIUse=3 WtCom= 8.31D-01 WtEn= 1.69D-01
 Coeff-Com:  0.100D+01
 Coeff-En:   0.100D+01
 Coeff:      0.100D+01
 Gap=     0.263 Goal=   None    Shift=    0.000
 GapD=    0.263 DampG=1.000 DampE=0.500 DampFc=0.5000 IDamp=-1.
 Damping current iteration by 5.00D-01
 RMSDP=2.77D-03 MaxDP=2.64D-01              OVMax= 2.47D-01

 Cycle   2  Pass 1  IDiag  1:
 RMSU=  1.38D-03    CP:  9.95D-01
 E= -1090.58059577026     Delta-E=       -0.122451888702 Rises=F Damp=T
 DIIS: error= 4.14D-03 at cycle   2 NSaved=   2.
 NSaved= 2 IEnMin= 2 EnMin= -1090.58059577026     IErMin= 2 ErrMin= 4.14D-03
 ErrMax= 4.14D-03  0.00D+00 EMaxC= 1.00D-01 BMatC= 3.89D-02 BMatP= 4.06D-01
 IDIUse=3 WtCom= 9.59D-01 WtEn= 4.14D-02
 Coeff-Com:  0.733D-01 0.927D+00
 Coeff-En:   0.166D+00 0.834D+00
 Coeff:      0.772D-01 0.923D+00
 Gap=     0.289 Goal=   None    Shift=    0.000
 RMSDP=9.81D-04 MaxDP=1.07D-01 DE=-1.22D-01 OVMax= 1.64D-01

 Cycle   3  Pass 1  IDiag  1:
 RMSU=  6.74D-04    CP:  9.82D-01  4.89D-01
 E= -1090.73464696226     Delta-E=       -0.154051191993 Rises=F Damp=F
 DIIS: error= 5.77D-03 at cycle   3 NSaved=   3.
 NSaved= 3 IEnMin= 3 EnMin= -1090.73464696226     IErMin= 2 ErrMin= 4.14D-03
 ErrMax= 5.77D-03  0.00D+00 EMaxC= 1.00D-01 BMatC= 3.59D-02 BMatP= 3.89D-02
 IDIUse=3 WtCom= 9.42D-01 WtEn= 5.77D-02
 Coeff-Com: -0.439D-01 0.500D+00 0.544D+00
 Coeff-En:   0.000D+00 0.000D+00 0.100D+01
 Coeff:     -0.414D-01 0.471D+00 0.571D+00
 Gap=     0.248 Goal=   None    Shift=    0.000
 RMSDP=3.36D-04 MaxDP=2.59D-02 DE=-1.54D-01 OVMax= 5.87D-02

 Cycle   4  Pass 1  IDiag  1:
 RMSU=  2.82D-04    CP:  9.80D-01  5.90D-01  8.24D-01
 E= -1090.75575887860     Delta-E=       -0.021111916339 Rises=F Damp=F
 DIIS: error= 1.87D-03 at cycle   4 NSaved=   4.
 NSaved= 4 IEnMin= 4 EnMin= -1090.75575887860     IErMin= 4 ErrMin= 1.87D-03
 ErrMax= 1.87D-03  0.00D+00 EMaxC= 1.00D-01 BMatC= 5.57D-03 BMatP= 3.59D-02
 IDIUse=3 WtCom= 9.81D-01 WtEn= 1.87D-02
 Coeff-Com: -0.337D-01 0.124D+00 0.318D+00 0.592D+00
 Coeff-En:   0.000D+00 0.000D+00 0.140D+00 0.860D+00
 Coeff:     -0.331D-01 0.122D+00 0.315D+00 0.597D+00
 Gap=     0.246 Goal=   None    Shift=    0.000
 RMSDP=1.16D-04 MaxDP=6.55D-03 DE=-2.11D-02 OVMax= 1.65D-02

 Cycle   5  Pass 1  IDiag  1:
 RMSU=  6.84D-05    CP:  9.79D-01  5.86D-01  9.08D-01  7.34D-01
 E= -1090.75988040150     Delta-E=       -0.004121522907 Rises=F Damp=F
 DIIS: error= 4.47D-04 at cycle   5 NSaved=   5.
 NSaved= 5 IEnMin= 5 EnMin= -1090.75988040150     IErMin= 5 ErrMin= 4.47D-04
 ErrMax= 4.47D-04  0.00D+00 EMaxC= 1.00D-01 BMatC= 3.02D-04 BMatP= 5.57D-03
 IDIUse=3 WtCom= 9.96D-01 WtEn= 4.47D-03
 Coeff-Com: -0.140D-01 0.339D-01 0.118D+00 0.298D+00 0.564D+00
 Coeff-En:   0.000D+00 0.000D+00 0.000D+00 0.000D+00 0.100D+01
 Coeff:     -0.140D-01 0.337D-01 0.117D+00 0.297D+00 0.566D+00
 Gap=     0.246 Goal=   None    Shift=    0.000
 RMSDP=3.62D-05 MaxDP=2.51D-03 DE=-4.12D-03 OVMax= 4.41D-03

 Cycle   6  Pass 1  IDiag  1:
 RMSU=  1.89D-05    CP:  9.80D-01  5.81D-01  8.97D-01  7.56D-01  5.86D-01
 E= -1090.76009107251     Delta-E=       -0.000210671006 Rises=F Damp=F
 DIIS: error= 1.29D-04 at cycle   6 NSaved=   6.
 NSaved= 6 IEnMin= 6 EnMin= -1090.76009107251     IErMin= 6 ErrMin= 1.29D-04
 ErrMax= 1.29D-04  0.00D+00 EMaxC= 1.00D-01 BMatC= 3.16D-05 BMatP= 3.02D-04
 IDIUse=3 WtCom= 9.99D-01 WtEn= 1.29D-03
 Coeff-Com: -0.551D-02 0.974D-02 0.403D-01 0.120D+00 0.314D+00 0.522D+00
 Coeff-En:   0.000D+00 0.000D+00 0.000D+00 0.000D+00 0.000D+00 0.100D+01
 Coeff:     -0.550D-02 0.973D-02 0.403D-01 0.120D+00 0.313D+00 0.522D+00
 Gap=     0.246 Goal=   None    Shift=    0.000
 RMSDP=1.11D-05 MaxDP=8.90D-04 DE=-2.11D-04 OVMax= 1.46D-03

 Cycle   7  Pass 1  IDiag  1:
 RMSU=  7.44D-06    CP:  9.80D-01  5.83D-01  8.98D-01  7.42D-01  6.31D-01
                    CP:  7.13D-01
 E= -1090.76011448953     Delta-E=       -0.000023417019 Rises=F Damp=F
 DIIS: error= 2.62D-05 at cycle   7 NSaved=   7.
 NSaved= 7 IEnMin= 7 EnMin= -1090.76011448953     IErMin= 7 ErrMin= 2.62D-05
 ErrMax= 2.62D-05  0.00D+00 EMaxC= 1.00D-01 BMatC= 1.54D-06 BMatP= 3.16D-05
 IDIUse=1 WtCom= 1.00D+00 WtEn= 0.00D+00
 Coeff-Com: -0.117D-02 0.130D-02 0.655D-02 0.254D-01 0.882D-01 0.233D+00
 Coeff-Com:  0.647D+00
 Coeff:     -0.117D-02 0.130D-02 0.655D-02 0.254D-01 0.882D-01 0.233D+00
 Coeff:      0.647D+00
 Gap=     0.246 Goal=   None    Shift=    0.000
 RMSDP=2.61D-06 MaxDP=2.67D-04 DE=-2.34D-05 OVMax= 2.28D-04

 Cycle   8  Pass 1  IDiag  1:
 RMSU=  1.37D-06    CP:  9.80D-01  5.83D-01  8.98D-01  7.47D-01  6.34D-01
                    CP:  7.64D-01  8.46D-01
 E= -1090.76011552821     Delta-E=       -0.000001038683 Rises=F Damp=F
 DIIS: error= 9.07D-06 at cycle   8 NSaved=   8.
 NSaved= 8 IEnMin= 8 EnMin= -1090.76011552821     IErMin= 8 ErrMin= 9.07D-06
 ErrMax= 9.07D-06  0.00D+00 EMaxC= 1.00D-01 BMatC= 1.37D-07 BMatP= 1.54D-06
 IDIUse=1 WtCom= 1.00D+00 WtEn= 0.00D+00
 Coeff-Com: -0.917D-04-0.102D-03-0.346D-03 0.129D-02 0.123D-01 0.582D-01
 Coeff-Com:  0.285D+00 0.644D+00
 Coeff:     -0.917D-04-0.102D-03-0.346D-03 0.129D-02 0.123D-01 0.582D-01
 Coeff:      0.285D+00 0.644D+00
 Gap=     0.246 Goal=   None    Shift=    0.000
 RMSDP=6.91D-07 MaxDP=4.55D-05 DE=-1.04D-06 OVMax= 8.62D-05

 Cycle   9  Pass 1  IDiag  1:
 RMSU=  5.07D-07    CP:  9.80D-01  5.83D-01  8.98D-01  7.46D-01  6.34D-01
                    CP:  7.76D-01  8.84D-01  8.44D-01
 E= -1090.76011562092     Delta-E=       -0.000000092706 Rises=F Damp=F
 DIIS: error= 3.53D-06 at cycle   9 NSaved=   9.
 NSaved= 9 IEnMin= 9 EnMin= -1090.76011562092     IErMin= 9 ErrMin= 3.53D-06
 ErrMax= 3.53D-06  0.00D+00 EMaxC= 1.00D-01 BMatC= 2.12D-08 BMatP= 1.37D-07
 IDIUse=1 WtCom= 1.00D+00 WtEn= 0.00D+00
 Coeff-Com:  0.772D-04-0.199D-03-0.889D-03-0.211D-02-0.352D-02 0.249D-02
 Coeff-Com:  0.639D-01 0.334D+00 0.606D+00
 Coeff:      0.772D-04-0.199D-03-0.889D-03-0.211D-02-0.352D-02 0.249D-02
 Coeff:      0.639D-01 0.334D+00 0.606D+00
 Gap=     0.246 Goal=   None    Shift=    0.000
 RMSDP=2.07D-07 MaxDP=1.14D-05 DE=-9.27D-08 OVMax= 3.15D-05

 Cycle  10  Pass 1  IDiag  1:
 RMSU=  1.12D-07    CP:  9.80D-01  5.82D-01  8.98D-01  7.46D-01  6.33D-01
                    CP:  7.79D-01  8.95D-01  8.98D-01  7.72D-01
 E= -1090.76011563863     Delta-E=       -0.000000017710 Rises=F Damp=F
 DIIS: error= 5.98D-07 at cycle  10 NSaved=  10.
 NSaved=10 IEnMin=10 EnMin= -1090.76011563863     IErMin=10 ErrMin= 5.98D-07
 ErrMax= 5.98D-07  0.00D+00 EMaxC= 1.00D-01 BMatC= 4.53D-10 BMatP= 2.12D-08
 IDIUse=1 WtCom= 1.00D+00 WtEn= 0.00D+00
 Coeff-Com:  0.258D-04-0.604D-04-0.291D-03-0.728D-03-0.150D-02-0.707D-03
 Coeff-Com:  0.138D-01 0.987D-01 0.216D+00 0.675D+00
 Coeff:      0.258D-04-0.604D-04-0.291D-03-0.728D-03-0.150D-02-0.707D-03
 Coeff:      0.138D-01 0.987D-01 0.216D+00 0.675D+00
 Gap=     0.246 Goal=   None    Shift=    0.000
 RMSDP=4.55D-08 MaxDP=1.90D-06 DE=-1.77D-08 OVMax= 7.78D-06

 Cycle  11  Pass 1  IDiag  1:
 RMSU=  3.69D-08    CP:  9.80D-01  5.82D-01  8.98D-01  7.46D-01  6.34D-01
                    CP:  7.79D-01  8.97D-01  9.03D-01  7.87D-01  8.81D-01
 E= -1090.76011563899     Delta-E=       -0.000000000358 Rises=F Damp=F
 DIIS: error= 3.37D-07 at cycle  11 NSaved=  11.
 NSaved=11 IEnMin=11 EnMin= -1090.76011563899     IErMin=11 ErrMin= 3.37D-07
 ErrMax= 3.37D-07  0.00D+00 EMaxC= 1.00D-01 BMatC= 1.21D-10 BMatP= 4.53D-10
 IDIUse=1 WtCom= 1.00D+00 WtEn= 0.00D+00
 Coeff-Com:  0.350D-05-0.452D-05-0.434D-04-0.114D-03-0.378D-03-0.791D-03
 Coeff-Com: -0.227D-02 0.428D-02 0.242D-01 0.346D+00 0.629D+00
 Coeff:      0.350D-05-0.452D-05-0.434D-04-0.114D-03-0.378D-03-0.791D-03
 Coeff:     -0.227D-02 0.428D-02 0.242D-01 0.346D+00 0.629D+00
 Gap=     0.246 Goal=   None    Shift=    0.000
 RMSDP=2.15D-08 MaxDP=1.05D-06 DE=-3.58D-10 OVMax= 3.66D-06

 Cycle  12  Pass 1  IDiag  1:
 RMSU=  1.12D-08    CP:  9.80D-01  5.82D-01  8.98D-01  7.46D-01  6.34D-01
                    CP:  7.79D-01  8.97D-01  9.08D-01  7.92D-01  9.51D-01
                    CP:  8.35D-01
 E= -1090.76011563909     Delta-E=       -0.000000000100 Rises=F Damp=F
 DIIS: error= 6.90D-08 at cycle  12 NSaved=  12.
 NSaved=12 IEnMin=12 EnMin= -1090.76011563909     IErMin=12 ErrMin= 6.90D-08
 ErrMax= 6.90D-08  0.00D+00 EMaxC= 1.00D-01 BMatC= 7.90D-12 BMatP= 1.21D-10
 IDIUse=1 WtCom= 1.00D+00 WtEn= 0.00D+00
 Coeff-Com: -0.721D-06 0.308D-05 0.203D-05 0.871D-05-0.508D-04-0.226D-03
 Coeff-Com: -0.200D-02-0.554D-02-0.639D-02 0.101D+00 0.276D+00 0.637D+00
 Coeff:     -0.721D-06 0.308D-05 0.203D-05 0.871D-05-0.508D-04-0.226D-03
 Coeff:     -0.200D-02-0.554D-02-0.639D-02 0.101D+00 0.276D+00 0.637D+00
 Gap=     0.246 Goal=   None    Shift=    0.000
 RMSDP=6.35D-09 MaxDP=4.80D-07 DE=-1.00D-10 OVMax= 8.72D-07

 Error on total polarization charges =  0.01048
 SCF Done:  E(RPBE1PBE) =  -1090.76011564     A.U. after   12 cycles
            NFock= 12  Conv=0.64D-08     -V/T= 2.0037
 KE= 1.086686355443D+03 PE=-5.546846413832D+03 EE= 1.882404526397D+03
 Leave Link  502 at Thu Aug 29 04:53:32 2024, MaxMem=  8589934592 cpu:            2177.9 elap:              91.2
 (Enter /share/apps/g16.b01_avx2/g16/l801.exe)
 DoSCS=F DFT=T ScalE2(SS,OS)=  1.000000  1.000000
 Range of M.O.s used for correlation:     1   618
 NBasis=   618 NAE=    69 NBE=    69 NFC=     0 NFV=     0
 NROrb=    618 NOA=    69 NOB=    69 NVA=   549 NVB=   549

 **** Warning!!: The largest alpha MO coefficient is  0.50022892D+02

 Leave Link  801 at Thu Aug 29 04:53:32 2024, MaxMem=  8589934592 cpu:               0.4 elap:               0.0
 (Enter /share/apps/g16.b01_avx2/g16/l1101.exe)
 Using compressed storage, NAtomX=    28.
 Will process     29 centers per pass.
   1 Symmetry operations used in ECPInt.
 ECPInt:  NShTT=   28441 NPrTT=   88836 LenC2=   25148 LenP2D=   56326.
 LDataN:  DoStor=T MaxTD1= 7 Len=  274
 Number of processors reduced to  19 by ecpmxn.
 R6Disp: Adding Grimme-D3 dispersion energy 1st derivatives to the gradient.
 Leave Link 1101 at Thu Aug 29 04:53:33 2024, MaxMem=  8589934592 cpu:              27.6 elap:               1.2
 (Enter /share/apps/g16.b01_avx2/g16/l1102.exe)
 Symmetrizing basis deriv contribution to polar:
 IMax=3 JMax=2 DiffMx= 0.00D+00
 Leave Link 1102 at Thu Aug 29 04:53:34 2024, MaxMem=  8589934592 cpu:               1.1 elap:               0.1
 (Enter /share/apps/g16.b01_avx2/g16/l1110.exe)
 Forming Gx(P) for the SCF density, NAtomX=    28.
 Integral derivatives from FoFJK, PRISM(SPDF).
 Do as many integral derivatives as possible in FoFJK.
 G2DrvN: MDV=    8589932216.
 G2DrvN: will do    29 centers at a time, making    1 passes.
 Calling FoFCou, ICntrl=  3107 FMM=F I1Cent=   0 AccDes= 0.00D+00.
 FoFJK:  IHMeth= 1 ICntrl=    3107 DoSepK=F KAlg= 0 I1Cent=           0 FoldK=F
 IRaf=         0 NMat=       1 IRICut=       1 DoRegI=T DoRafI=F ISym2E= 0 IDoP0=0 IntGTp=1.
 FoFCou: FMM=F IPFlag=           0 FMFlag=      100000 FMFlg1=           0
         NFxFlg=           0 DoJE=F BraDBF=F KetDBF=F FulRan=T
         wScrn=  0.000000 ICntrl=      3107 IOpCl=  0 I1Cent=           0 NGrid=           0
         NMat0=    1 NMatS0=      1 NMatT0=    0 NMatD0=    1 NMtDS0=    0 NMtDT0=    0
 Symmetry not used in FoFCou.
 NEqPCM:  Using equilibrium solvation (IEInf=0, Eps=  78.3553, EpsInf=   1.7778)
 G2PCM: DoFxE=T DoFxN=T DoGrad=T DoDP/DQ/DG/TGxP=FFFF NFrqRd=   0 IEInf=0 SqF1=F DoCFld=F IF1Alg=4.
 GePol: Maximum number of non-zero 1st derivatives   =     224
 End of G2Drv F.D. properties file   721 does not exist.
 End of G2Drv F.D. properties file   722 does not exist.
 End of G2Drv F.D. properties file   788 does not exist.
 Leave Link 1110 at Thu Aug 29 04:56:32 2024, MaxMem=  8589934592 cpu:            4285.3 elap:             178.7
 (Enter /share/apps/g16.b01_avx2/g16/l1002.exe)
 Minotr:  Closed shell wavefunction.
          IDoAtm=1111111111111111111111111111
 NEqPCM:  Using equilibrium solvation (IEInf=0, Eps=  78.3553, EpsInf=   1.7778)
          Direct CPHF calculation.
          Differentiating once with respect to nuclear coordinates.
          Requested convergence is 1.0D-08 RMS, and 1.0D-07 maximum.
          Secondary convergence is 1.0D-12 RMS, and 1.0D-12 maximum.
          NewPWx=T KeepS1=F KeepF1=F KeepIn=T MapXYZ=F SortEE=F KeepMc=T.
        19517 words used for storage of precomputed grid.
 Two-electron integrals replicated using symmetry.
          MDV=    8589934592 using IRadAn=   99302.
          Solving linear equations simultaneously, MaxMat=     384.
 FoF2E skips out because all densities are zero.
 CalDSu exits because no D1Ps are significant.
 FoFJK:  IHMeth= 1 ICntrl=       0 DoSepK=F KAlg= 0 I1Cent=           0 FoldK=F
 IRaf= 800000000 NMat=      84 IRICut=     210 DoRegI=T DoRafI=T ISym2E= 2 IDoP0=3 IntGTp=3.
          There are    87 degrees of freedom in the 1st order CPHF.  IDoFFX=6 NUNeed=     0.
     81 vectors produced by pass  0 Test12= 4.35D-14 1.15D-09 XBig12= 1.45D-01 1.61D-01.
 AX will form    81 AO Fock derivatives at one time.
     81 vectors produced by pass  1 Test12= 4.35D-14 1.15D-09 XBig12= 2.74D-02 3.17D-02.
     81 vectors produced by pass  2 Test12= 4.35D-14 1.15D-09 XBig12= 6.15D-04 2.97D-03.
     81 vectors produced by pass  3 Test12= 4.35D-14 1.15D-09 XBig12= 6.13D-06 3.24D-04.
     81 vectors produced by pass  4 Test12= 4.35D-14 1.15D-09 XBig12= 1.89D-08 1.51D-05.
     81 vectors produced by pass  5 Test12= 4.35D-14 1.15D-09 XBig12= 4.11D-11 7.29D-07.
     45 vectors produced by pass  6 Test12= 4.35D-14 1.15D-09 XBig12= 1.10D-13 2.49D-08.
      4 vectors produced by pass  7 Test12= 4.35D-14 1.15D-09 XBig12= 5.99D-16 3.26D-09.
      4 vectors produced by pass  8 Test12= 4.35D-14 1.15D-09 XBig12= 2.39D-15 3.92D-09.
      4 vectors produced by pass  9 Test12= 4.35D-14 1.15D-09 XBig12= 9.04D-15 1.07D-08.
      4 vectors produced by pass 10 Test12= 4.35D-14 1.15D-09 XBig12= 2.21D-15 5.40D-09.
      4 vectors produced by pass 11 Test12= 4.35D-14 1.15D-09 XBig12= 4.74D-15 8.62D-09.
      3 vectors produced by pass 12 Test12= 4.35D-14 1.15D-09 XBig12= 1.48D-15 3.78D-09.
      3 vectors produced by pass 13 Test12= 4.35D-14 1.15D-09 XBig12= 4.07D-15 5.60D-09.
      3 vectors produced by pass 14 Test12= 4.35D-14 1.15D-09 XBig12= 2.51D-15 4.03D-09.
      3 vectors produced by pass 15 Test12= 4.35D-14 1.15D-09 XBig12= 2.81D-15 5.37D-09.
      3 vectors produced by pass 16 Test12= 4.35D-14 1.15D-09 XBig12= 2.67D-15 4.39D-09.
      2 vectors produced by pass 17 Test12= 4.35D-14 1.15D-09 XBig12= 1.12D-15 2.69D-09.
 InvSVY:  IOpt=1 It=  1 EMax= 4.44D-16
 Solved reduced A of dimension   568 with    87 vectors.
 End of Minotr F.D. properties file   721 does not exist.
 End of Minotr F.D. properties file   722 does not exist.
 End of Minotr F.D. properties file   788 does not exist.
 Leave Link 1002 at Thu Aug 29 05:06:59 2024, MaxMem=  8589934592 cpu:           15026.2 elap:             626.5
 (Enter /share/apps/g16.b01_avx2/g16/l601.exe)
 Copying SCF densities to generalized density rwf, IOpCl= 0 IROHF=0.

 **********************************************************************

            Population analysis using the SCF Density.

 **********************************************************************

 Orbital symmetries:
       Occupied  (A) (A) (A) (A) (A) (A) (A) (A) (A) (A) (A) (A)
                 (A) (A) (A) (A) (A) (A) (A) (A) (A) (A) (A) (A)
                 (A) (A) (A) (A) (A) (A) (A) (A) (A) (A) (A) (A)
                 (A) (A) (A) (A) (A) (A) (A) (A) (A) (A) (A) (A)
                 (A) (A) (A) (A) (A) (A) (A) (A) (A) (A) (A) (A)
                 (A) (A) (A) (A) (A) (A) (A) (A) (A)
       Virtual   (A) (A) (A) (A) (A) (A) (A) (A) (A) (A) (A) (A)
                 (A) (A) (A) (A) (A) (A) (A) (A) (A) (A) (A) (A)
                 (A) (A) (A) (A) (A) (A) (A) (A) (A) (A) (A) (A)
                 (A) (A) (A) (A) (A) (A) (A) (A) (A) (A) (A) (A)
                 (A) (A) (A) (A) (A) (A) (A) (A) (A) (A) (A) (A)
                 (A) (A) (A) (A) (A) (A) (A) (A) (A) (A) (A) (A)
                 (A) (A) (A) (A) (A) (A) (A) (A) (A) (A) (A) (A)
                 (A) (A) (A) (A) (A) (A) (A) (A) (A) (A) (A) (A)
                 (A) (A) (A) (A) (A) (A) (A) (A) (A) (A) (A) (A)
                 (A) (A) (A) (A) (A) (A) (A) (A) (A) (A) (A) (A)
                 (A) (A) (A) (A) (A) (A) (A) (A) (A) (A) (A) (A)
                 (A) (A) (A) (A) (A) (A) (A) (A) (A) (A) (A) (A)
                 (A) (A) (A) (A) (A) (A) (A) (A) (A) (A) (A) (A)
                 (A) (A) (A) (A) (A) (A) (A) (A) (A) (A) (A) (A)
                 (A) (A) (A) (A) (A) (A) (A) (A) (A) (A) (A) (A)
                 (A) (A) (A) (A) (A) (A) (A) (A) (A) (A) (A) (A)
                 (A) (A) (A) (A) (A) (A) (A) (A) (A) (A) (A) (A)
                 (A) (A) (A) (A) (A) (A) (A) (A) (A) (A) (A) (A)
                 (A) (A) (A) (A) (A) (A) (A) (A) (A) (A) (A) (A)
                 (A) (A) (A) (A) (A) (A) (A) (A) (A) (A) (A) (A)
                 (A) (A) (A) (A) (A) (A) (A) (A) (A) (A) (A) (A)
                 (A) (A) (A) (A) (A) (A) (A) (A) (A) (A) (A) (A)
                 (A) (A) (A) (A) (A) (A) (A) (A) (A) (A) (A) (A)
                 (A) (A) (A) (A) (A) (A) (A) (A) (A) (A) (A) (A)
                 (A) (A) (A) (A) (A) (A) (A) (A) (A) (A) (A) (A)
                 (A) (A) (A) (A) (A) (A) (A) (A) (A) (A) (A) (A)
                 (A) (A) (A) (A) (A) (A) (A) (A) (A) (A) (A) (A)
                 (A) (A) (A) (A) (A) (A) (A) (A) (A) (A) (A) (A)
                 (A) (A) (A) (A) (A) (A) (A) (A) (A) (A) (A) (A)
                 (A) (A) (A) (A) (A) (A) (A) (A) (A) (A) (A) (A)
                 (A) (A) (A) (A) (A) (A) (A) (A) (A) (A) (A) (A)
                 (A) (A) (A) (A) (A) (A) (A) (A) (A) (A) (A) (A)
                 (A) (A) (A) (A) (A) (A) (A) (A) (A) (A) (A) (A)
                 (A) (A) (A) (A) (A) (A) (A) (A) (A) (A) (A) (A)
                 (A) (A) (A) (A) (A) (A) (A) (A) (A) (A) (A) (A)
                 (A) (A) (A) (A) (A) (A) (A) (A) (A) (A) (A) (A)
                 (A) (A) (A) (A) (A) (A) (A) (A) (A) (A) (A) (A)
                 (A) (A) (A) (A) (A) (A) (A) (A) (A) (A) (A) (A)
                 (A) (A) (A) (A) (A) (A) (A) (A) (A) (A) (A) (A)
                 (A) (A) (A) (A) (A) (A) (A) (A) (A) (A) (A) (A)
                 (A) (A) (A) (A) (A) (A) (A) (A) (A) (A) (A) (A)
                 (A) (A) (A) (A) (A) (A) (A) (A) (A) (A) (A) (A)
                 (A) (A) (A) (A) (A) (A) (A) (A) (A) (A) (A) (A)
                 (A) (A) (A) (A) (A) (A) (A) (A) (A) (A) (A) (A)
                 (A) (A) (A) (A) (A) (A) (A) (A) (A) (A) (A) (A)
                 (A) (A) (A) (A) (A) (A) (A) (A) (A)
 The electronic state is 1-A.
 Alpha  occ. eigenvalues --  -24.81674 -24.81551 -24.81514 -24.81478 -24.80868
 Alpha  occ. eigenvalues --  -19.23781 -19.15490 -14.44476 -10.35751 -10.34187
 Alpha  occ. eigenvalues --  -10.34012 -10.33933 -10.33612 -10.33467 -10.31068
 Alpha  occ. eigenvalues --  -10.25680 -10.22051 -10.19853  -1.30868  -1.30183
 Alpha  occ. eigenvalues --   -1.29530  -1.28772  -1.28416  -1.11703  -1.03373
 Alpha  occ. eigenvalues --   -0.96869  -0.92650  -0.81566  -0.80855  -0.79133
 Alpha  occ. eigenvalues --   -0.72506  -0.70151  -0.69490  -0.66839  -0.62963
 Alpha  occ. eigenvalues --   -0.62499  -0.61336  -0.58796  -0.57479  -0.56758
 Alpha  occ. eigenvalues --   -0.56466  -0.55395  -0.55125  -0.53169  -0.52654
 Alpha  occ. eigenvalues --   -0.51701  -0.50342  -0.49839  -0.49491  -0.48647
 Alpha  occ. eigenvalues --   -0.48047  -0.47328  -0.46926  -0.45312  -0.44432
 Alpha  occ. eigenvalues --   -0.43620  -0.42752  -0.41460  -0.41143  -0.40455
 Alpha  occ. eigenvalues --   -0.37759  -0.37023  -0.36519  -0.35950  -0.32818
 Alpha  occ. eigenvalues --   -0.29296  -0.27186  -0.26739  -0.26452
 Alpha virt. eigenvalues --   -0.01865  -0.01238  -0.01024   0.03918   0.06305
 Alpha virt. eigenvalues --    0.07102   0.07923   0.08307   0.09349   0.10602
 Alpha virt. eigenvalues --    0.11474   0.12306   0.12542   0.13751   0.14111
 Alpha virt. eigenvalues --    0.14413   0.14977   0.15677   0.16982   0.18331
 Alpha virt. eigenvalues --    0.18949   0.19424   0.19529   0.20066   0.20283
 Alpha virt. eigenvalues --    0.21307   0.21927   0.23112   0.24250   0.24676
 Alpha virt. eigenvalues --    0.25305   0.25623   0.26449   0.27290   0.27618
 Alpha virt. eigenvalues --    0.28728   0.29130   0.29752   0.30112   0.31024
 Alpha virt. eigenvalues --    0.32334   0.32526   0.33621   0.35093   0.35707
 Alpha virt. eigenvalues --    0.36189   0.37693   0.38620   0.39221   0.39308
 Alpha virt. eigenvalues --    0.39793   0.40364   0.40825   0.41345   0.41873
 Alpha virt. eigenvalues --    0.42258   0.42901   0.43207   0.43862   0.43933
 Alpha virt. eigenvalues --    0.44590   0.44799   0.45413   0.45931   0.46702
 Alpha virt. eigenvalues --    0.46865   0.47700   0.48851   0.49099   0.49940
 Alpha virt. eigenvalues --    0.50362   0.51283   0.52382   0.53302   0.53878
 Alpha virt. eigenvalues --    0.54324   0.54872   0.55660   0.56952   0.58227
 Alpha virt. eigenvalues --    0.59518   0.61005   0.62109   0.62902   0.63339
 Alpha virt. eigenvalues --    0.64409   0.64554   0.65968   0.67735   0.68159
 Alpha virt. eigenvalues --    0.69800   0.71221   0.71775   0.73075   0.73139
 Alpha virt. eigenvalues --    0.74117   0.74639   0.75028   0.75722   0.77391
 Alpha virt. eigenvalues --    0.78590   0.79051   0.80160   0.82281   0.82357
 Alpha virt. eigenvalues --    0.83832   0.84688   0.84869   0.85351   0.86002
 Alpha virt. eigenvalues --    0.87119   0.87912   0.88537   0.89344   0.90160
 Alpha virt. eigenvalues --    0.91045   0.92641   0.93712   0.94749   0.95840
 Alpha virt. eigenvalues --    0.96975   0.97668   0.98268   0.99095   0.99568
 Alpha virt. eigenvalues --    1.00009   1.01095   1.01922   1.03711   1.04337
 Alpha virt. eigenvalues --    1.06296   1.07042   1.08890   1.09197   1.09671
 Alpha virt. eigenvalues --    1.10070   1.11721   1.12207   1.14296   1.14508
 Alpha virt. eigenvalues --    1.16427   1.17030   1.17813   1.18686   1.19760
 Alpha virt. eigenvalues --    1.21973   1.24302   1.25492   1.26384   1.28347
 Alpha virt. eigenvalues --    1.28867   1.30801   1.32263   1.34720   1.35622
 Alpha virt. eigenvalues --    1.35989   1.38002   1.39948   1.40554   1.41681
 Alpha virt. eigenvalues --    1.43259   1.45667   1.46085   1.46740   1.47105
 Alpha virt. eigenvalues --    1.47908   1.49104   1.51727   1.53120   1.53798
 Alpha virt. eigenvalues --    1.54822   1.55421   1.56775   1.57359   1.58298
 Alpha virt. eigenvalues --    1.58747   1.60194   1.62442   1.63276   1.63572
 Alpha virt. eigenvalues --    1.65372   1.67098   1.67677   1.70085   1.72234
 Alpha virt. eigenvalues --    1.72616   1.73710   1.74980   1.76450   1.76967
 Alpha virt. eigenvalues --    1.78826   1.80271   1.82099   1.82400   1.83406
 Alpha virt. eigenvalues --    1.84384   1.84592   1.85903   1.87354   1.89048
 Alpha virt. eigenvalues --    1.90390   1.92179   1.94683   1.95272   1.95903
 Alpha virt. eigenvalues --    1.96773   1.97065   1.98233   1.98693   2.00218
 Alpha virt. eigenvalues --    2.01822   2.03099   2.04261   2.04832   2.05503
 Alpha virt. eigenvalues --    2.06704   2.07455   2.08081   2.08794   2.10283
 Alpha virt. eigenvalues --    2.11467   2.15511   2.16055   2.16474   2.17589
 Alpha virt. eigenvalues --    2.18841   2.19009   2.21305   2.21744   2.21881
 Alpha virt. eigenvalues --    2.26142   2.26990   2.27933   2.30567   2.31978
 Alpha virt. eigenvalues --    2.32215   2.33659   2.34492   2.35265   2.35808
 Alpha virt. eigenvalues --    2.37135   2.37500   2.39554   2.40562   2.42127
 Alpha virt. eigenvalues --    2.43507   2.44744   2.46370   2.47335   2.47967
 Alpha virt. eigenvalues --    2.50003   2.50471   2.52226   2.53618   2.54554
 Alpha virt. eigenvalues --    2.56328   2.57237   2.58310   2.59094   2.59337
 Alpha virt. eigenvalues --    2.61478   2.61914   2.62461   2.63010   2.63373
 Alpha virt. eigenvalues --    2.64209   2.64941   2.66173   2.67672   2.68525
 Alpha virt. eigenvalues --    2.69040   2.70869   2.73002   2.74620   2.76961
 Alpha virt. eigenvalues --    2.77528   2.78426   2.79767   2.80656   2.81142
 Alpha virt. eigenvalues --    2.81520   2.82081   2.83364   2.84695   2.85852
 Alpha virt. eigenvalues --    2.86559   2.88330   2.89159   2.89774   2.91745
 Alpha virt. eigenvalues --    2.92008   2.92359   2.93446   2.94538   2.95020
 Alpha virt. eigenvalues --    2.95534   2.97056   2.97422   2.99159   3.00894
 Alpha virt. eigenvalues --    3.01875   3.03097   3.04606   3.05361   3.06291
 Alpha virt. eigenvalues --    3.07534   3.08024   3.09582   3.10659   3.11819
 Alpha virt. eigenvalues --    3.12298   3.13051   3.13394   3.14462   3.15947
 Alpha virt. eigenvalues --    3.16783   3.18065   3.18348   3.20043   3.21515
 Alpha virt. eigenvalues --    3.21821   3.22095   3.22269   3.23640   3.23870
 Alpha virt. eigenvalues --    3.24527   3.25688   3.26804   3.28603   3.31119
 Alpha virt. eigenvalues --    3.31597   3.32616   3.32741   3.35423   3.37177
 Alpha virt. eigenvalues --    3.39014   3.39790   3.40620   3.41686   3.42458
 Alpha virt. eigenvalues --    3.43685   3.44522   3.45033   3.45959   3.46360
 Alpha virt. eigenvalues --    3.46892   3.47722   3.49214   3.50205   3.51113
 Alpha virt. eigenvalues --    3.51545   3.53333   3.53653   3.54407   3.56472
 Alpha virt. eigenvalues --    3.57496   3.59521   3.61045   3.62563   3.63400
 Alpha virt. eigenvalues --    3.65038   3.67025   3.70185   3.70980   3.72221
 Alpha virt. eigenvalues --    3.73072   3.74585   3.77745   3.79483   3.79618
 Alpha virt. eigenvalues --    3.81739   3.83064   3.83532   3.87048   3.88094
 Alpha virt. eigenvalues --    3.88249   3.89962   3.91634   3.93061   3.96574
 Alpha virt. eigenvalues --    3.97744   4.00038   4.01878   4.05034   4.07142
 Alpha virt. eigenvalues --    4.07668   4.10237   4.12319   4.13252   4.14135
 Alpha virt. eigenvalues --    4.14490   4.15927   4.16731   4.18689   4.18989
 Alpha virt. eigenvalues --    4.20357   4.22463   4.22964   4.23133   4.26212
 Alpha virt. eigenvalues --    4.29051   4.30358   4.32410   4.36011   4.38822
 Alpha virt. eigenvalues --    4.40252   4.41439   4.43089   4.45059   4.45555
 Alpha virt. eigenvalues --    4.48919   4.50103   4.52903   4.57497   4.60838
 Alpha virt. eigenvalues --    4.62475   4.65444   4.66177   4.69154   4.72646
 Alpha virt. eigenvalues --    4.75624   4.79652   4.84641   4.85167   4.87178
 Alpha virt. eigenvalues --    4.88345   4.90115   4.91424   4.92781   4.94161
 Alpha virt. eigenvalues --    4.98730   5.03577   5.09763   5.10128   5.15151
 Alpha virt. eigenvalues --    5.16599   5.23204   5.25779   5.27773   5.32024
 Alpha virt. eigenvalues --    5.37723   5.38125   5.42896   5.45114   5.46884
 Alpha virt. eigenvalues --    5.50588   5.55077   5.58394   5.59464   5.66164
 Alpha virt. eigenvalues --    5.70110   5.79587   5.84827   5.88653   5.95560
 Alpha virt. eigenvalues --    6.09241   6.23065   6.33850   6.39010   6.42705
 Alpha virt. eigenvalues --    6.50480   6.53200   6.61090   6.75109   6.79932
 Alpha virt. eigenvalues --    6.84816   6.85150   6.85459   6.85658   6.86107
 Alpha virt. eigenvalues --    6.86459   6.86955   6.87240   6.87290   6.88894
 Alpha virt. eigenvalues --    6.91616   6.94123   6.96457   6.97863   7.01004
 Alpha virt. eigenvalues --    7.02464   7.03362   7.06905   7.07187   7.10272
 Alpha virt. eigenvalues --    7.10654   7.14072   7.14779   7.17357   7.18512
 Alpha virt. eigenvalues --    7.20819   7.24335   7.27022   7.29711   7.29778
 Alpha virt. eigenvalues --    7.32240   7.36556   7.37451   7.41902   7.43946
 Alpha virt. eigenvalues --    7.47039   7.50856   7.67187   7.67826   7.75755
 Alpha virt. eigenvalues --    8.09328   8.30900   8.33412   8.35959   8.38210
 Alpha virt. eigenvalues --    8.43033   8.43547   8.54152   8.56682   8.59158
 Alpha virt. eigenvalues --    8.69507   8.72971   8.76570   8.77462   8.80287
 Alpha virt. eigenvalues --    8.81088   8.87559   8.89726   8.93201   8.94650
 Alpha virt. eigenvalues --    9.02192   9.03845   9.07770   9.09883   9.13524
 Alpha virt. eigenvalues --    9.40390  22.27829  22.44401  22.54109  22.61994
 Alpha virt. eigenvalues --   22.97791  22.98620  23.10982  23.14144  23.14945
 Alpha virt. eigenvalues --   23.75614  32.23653  44.26141  44.60988  57.20600
 Alpha virt. eigenvalues --   57.40703  57.47153  57.55494  57.66027
          Condensed to atoms (all electrons):
               1          2          3          4          5          6
     1  H    0.433990   0.004323  -0.009283   0.341807  -0.022111  -0.019051
     2  O    0.004323   8.015390   0.701367  -0.082682   0.004028  -0.011084
     3  C   -0.009283   0.701367   4.656345   0.104818  -0.004081  -0.029009
     4  N    0.341807  -0.082682   0.104818   6.388250   0.348499   0.278310
     5  H   -0.022111   0.004028  -0.004081   0.348499   0.422966  -0.022396
     6  C   -0.019051  -0.011084  -0.029009   0.278310  -0.022396   4.897280
     7  H    0.006355   0.000188  -0.005655  -0.030203  -0.006927   0.412321
     8  H   -0.002179   0.019131   0.001939  -0.045886   0.007198   0.404315
     9  H   -0.008908  -0.000342   0.004342  -0.021244  -0.003082   0.403998
    10  C    0.006856  -0.093628   0.361162  -0.051859  -0.004357   0.007720
    11  H    0.000124   0.002585  -0.036028  -0.003040   0.000041   0.001640
    12  H   -0.000251   0.005586  -0.010490   0.002310  -0.000663  -0.000645
    13  O   -0.001373  -0.091896   0.223662  -0.042548   0.003711   0.003232
    14  C   -0.002547  -0.021333  -0.128148   0.023891  -0.000224  -0.000484
    15  C   -0.001967   0.021407   0.003452  -0.009638   0.001212   0.000731
    16  C    0.000350   0.024882  -0.015190   0.004209  -0.000291  -0.000067
    17  C   -0.001135  -0.002702   0.001362  -0.000196   0.000049   0.000081
    18  C    0.000134  -0.004733   0.001994  -0.000119  -0.000007  -0.000018
    19  C   -0.000042  -0.000171   0.000419  -0.000007  -0.000001   0.000000
    20  F    0.010871  -0.000389  -0.000612  -0.002900   0.000175  -0.000119
    21  F   -0.000004  -0.001364  -0.000252  -0.000079  -0.000002  -0.000002
    22  F   -0.000018  -0.000001   0.000029  -0.000001  -0.000000   0.000000
    23  F   -0.000000  -0.000001   0.000037  -0.000000   0.000000   0.000000
    24  F    0.000000  -0.000000  -0.000001  -0.000000   0.000000   0.000000
    25  C   -0.000385  -0.023837  -0.048722   0.005339   0.000181  -0.000575
    26  H   -0.000009   0.001307  -0.007434   0.000494  -0.000034  -0.000009
    27  H   -0.000095   0.020235  -0.002811   0.002106  -0.000137  -0.000183
    28  H    0.000014  -0.000364   0.009349  -0.000193  -0.000020   0.000009
               7          8          9         10         11         12
     1  H    0.006355  -0.002179  -0.008908   0.006856   0.000124  -0.000251
     2  O    0.000188   0.019131  -0.000342  -0.093628   0.002585   0.005586
     3  C   -0.005655   0.001939   0.004342   0.361162  -0.036028  -0.010490
     4  N   -0.030203  -0.045886  -0.021244  -0.051859  -0.003040   0.002310
     5  H   -0.006927   0.007198  -0.003082  -0.004357   0.000041  -0.000663
     6  C    0.412321   0.404315   0.403998   0.007720   0.001640  -0.000645
     7  H    0.499256  -0.021353  -0.020120   0.003771  -0.001332  -0.000194
     8  H   -0.021353   0.504726  -0.022235  -0.002718   0.000216  -0.000060
     9  H   -0.020120  -0.022235   0.503566  -0.000900   0.000385   0.000053
    10  C    0.003771  -0.002718  -0.000900   5.032882   0.408244   0.368925
    11  H   -0.001332   0.000216   0.000385   0.408244   0.555727  -0.025061
    12  H   -0.000194  -0.000060   0.000053   0.368925  -0.025061   0.562604
    13  O   -0.000083   0.001075  -0.000056  -0.079106   0.005535   0.001719
    14  C    0.000092  -0.000724   0.000074   0.000689   0.000264   0.000648
    15  C   -0.000001   0.000181  -0.000063   0.004336   0.000024  -0.000823
    16  C    0.000000  -0.000169   0.000002  -0.001979  -0.000108  -0.000179
    17  C   -0.000002   0.000012  -0.000003  -0.000362  -0.000007   0.000039
    18  C   -0.000000   0.000014  -0.000000   0.000212  -0.000008  -0.000019
    19  C    0.000000   0.000002  -0.000000   0.000044   0.000003  -0.000002
    20  F   -0.000010   0.000012   0.000015  -0.000029  -0.000000   0.000003
    21  F    0.000000   0.000002  -0.000000  -0.002417  -0.000040  -0.000008
    22  F    0.000000  -0.000000   0.000000   0.000000   0.000000  -0.000000
    23  F   -0.000000  -0.000000   0.000000   0.000003   0.000000   0.000000
    24  F   -0.000000  -0.000000   0.000000  -0.000000  -0.000000  -0.000000
    25  C   -0.000030   0.000065   0.000021   0.344330  -0.027342  -0.021485
    26  H   -0.000013  -0.000008   0.000003  -0.033351   0.006812  -0.006703
    27  H   -0.000024  -0.000128   0.000011  -0.054322  -0.000048   0.007847
    28  H    0.000028  -0.000012  -0.000002  -0.033303  -0.008834  -0.002126
              13         14         15         16         17         18
     1  H   -0.001373  -0.002547  -0.001967   0.000350  -0.001135   0.000134
     2  O   -0.091896  -0.021333   0.021407   0.024882  -0.002702  -0.004733
     3  C    0.223662  -0.128148   0.003452  -0.015190   0.001362   0.001994
     4  N   -0.042548   0.023891  -0.009638   0.004209  -0.000196  -0.000119
     5  H    0.003711  -0.000224   0.001212  -0.000291   0.000049  -0.000007
     6  C    0.003232  -0.000484   0.000731  -0.000067   0.000081  -0.000018
     7  H   -0.000083   0.000092  -0.000001   0.000000  -0.000002  -0.000000
     8  H    0.001075  -0.000724   0.000181  -0.000169   0.000012   0.000014
     9  H   -0.000056   0.000074  -0.000063   0.000002  -0.000003  -0.000000
    10  C   -0.079106   0.000689   0.004336  -0.001979  -0.000362   0.000212
    11  H    0.005535   0.000264   0.000024  -0.000108  -0.000007  -0.000008
    12  H    0.001719   0.000648  -0.000823  -0.000179   0.000039  -0.000019
    13  O    8.051744   0.288494  -0.032301  -0.038744   0.007268   0.006436
    14  C    0.288494   5.368342   0.210683   0.222369  -0.004199  -0.012145
    15  C   -0.032301   0.210683   5.184816   0.016824   0.302476   0.003586
    16  C   -0.038744   0.222369   0.016824   5.141451   0.008528   0.323912
    17  C    0.007268  -0.004199   0.302476   0.008528   4.973507  -0.062371
    18  C    0.006436  -0.012145   0.003586   0.323912  -0.062371   4.956376
    19  C    0.001380   0.020398  -0.080098  -0.100825   0.413015   0.416615
    20  F   -0.001275  -0.043320   0.250542   0.005591  -0.030953  -0.000513
    21  F    0.002899  -0.062275   0.004641   0.276666  -0.000606  -0.028430
    22  F   -0.000056   0.009334  -0.055291  -0.001249   0.294978   0.007085
    23  F   -0.000062   0.009887  -0.001076  -0.056712   0.007151   0.296143
    24  F   -0.000001  -0.001139   0.009048   0.009552  -0.046290  -0.045932
    25  C    0.000983   0.001603   0.001188  -0.004762  -0.000039  -0.000753
    26  H    0.006049   0.002201  -0.000063  -0.000940  -0.000039  -0.000554
    27  H    0.001012  -0.000033  -0.000526  -0.002074   0.000066  -0.000371
    28  H    0.000203  -0.000326   0.000002   0.000344  -0.000000   0.000013
              19         20         21         22         23         24
     1  H   -0.000042   0.010871  -0.000004  -0.000018  -0.000000   0.000000
     2  O   -0.000171  -0.000389  -0.001364  -0.000001  -0.000001  -0.000000
     3  C    0.000419  -0.000612  -0.000252   0.000029   0.000037  -0.000001
     4  N   -0.000007  -0.002900  -0.000079  -0.000001  -0.000000  -0.000000
     5  H   -0.000001   0.000175  -0.000002  -0.000000   0.000000   0.000000
     6  C    0.000000  -0.000119  -0.000002   0.000000   0.000000   0.000000
     7  H    0.000000  -0.000010   0.000000   0.000000  -0.000000  -0.000000
     8  H    0.000002   0.000012   0.000002  -0.000000  -0.000000  -0.000000
     9  H   -0.000000   0.000015  -0.000000   0.000000   0.000000   0.000000
    10  C    0.000044  -0.000029  -0.002417   0.000000   0.000003  -0.000000
    11  H    0.000003  -0.000000  -0.000040   0.000000   0.000000  -0.000000
    12  H   -0.000002   0.000003  -0.000008  -0.000000   0.000000  -0.000000
    13  O    0.001380  -0.001275   0.002899  -0.000056  -0.000062  -0.000001
    14  C    0.020398  -0.043320  -0.062275   0.009334   0.009887  -0.001139
    15  C   -0.080098   0.250542   0.004641  -0.055291  -0.001076   0.009048
    16  C   -0.100825   0.005591   0.276666  -0.001249  -0.056712   0.009552
    17  C    0.413015  -0.030953  -0.000606   0.294978   0.007151  -0.046290
    18  C    0.416615  -0.000513  -0.028430   0.007085   0.296143  -0.045932
    19  C    4.957586   0.006935   0.006601  -0.045159  -0.045340   0.284092
    20  F    0.006935   8.993451  -0.000031   0.000632   0.000000  -0.000027
    21  F    0.006601  -0.000031   8.972857   0.000000   0.000032  -0.000025
    22  F   -0.045159   0.000632   0.000000   8.962633  -0.000028   0.001146
    23  F   -0.045340   0.000000   0.000032  -0.000028   8.963269   0.001020
    24  F    0.284092  -0.000027  -0.000025   0.001146   0.001020   8.961098
    25  C    0.000032   0.000002   0.001846   0.000000  -0.000023   0.000000
    26  H    0.000037  -0.000002   0.001761   0.000000  -0.000004   0.000000
    27  H   -0.000006   0.000001   0.001623  -0.000000   0.000005  -0.000000
    28  H   -0.000001  -0.000000   0.000776   0.000000  -0.000000   0.000000
              25         26         27         28
     1  H   -0.000385  -0.000009  -0.000095   0.000014
     2  O   -0.023837   0.001307   0.020235  -0.000364
     3  C   -0.048722  -0.007434  -0.002811   0.009349
     4  N    0.005339   0.000494   0.002106  -0.000193
     5  H    0.000181  -0.000034  -0.000137  -0.000020
     6  C   -0.000575  -0.000009  -0.000183   0.000009
     7  H   -0.000030  -0.000013  -0.000024   0.000028
     8  H    0.000065  -0.000008  -0.000128  -0.000012
     9  H    0.000021   0.000003   0.000011  -0.000002
    10  C    0.344330  -0.033351  -0.054322  -0.033303
    11  H   -0.027342   0.006812  -0.000048  -0.008834
    12  H   -0.021485  -0.006703   0.007847  -0.002126
    13  O    0.000983   0.006049   0.001012   0.000203
    14  C    0.001603   0.002201  -0.000033  -0.000326
    15  C    0.001188  -0.000063  -0.000526   0.000002
    16  C   -0.004762  -0.000940  -0.002074   0.000344
    17  C   -0.000039  -0.000039   0.000066  -0.000000
    18  C   -0.000753  -0.000554  -0.000371   0.000013
    19  C    0.000032   0.000037  -0.000006  -0.000001
    20  F    0.000002  -0.000002   0.000001  -0.000000
    21  F    0.001846   0.001761   0.001623   0.000776
    22  F    0.000000   0.000000  -0.000000   0.000000
    23  F   -0.000023  -0.000004   0.000005  -0.000000
    24  F    0.000000   0.000000  -0.000000   0.000000
    25  C    4.935389   0.406040   0.410203   0.404121
    26  H    0.406040   0.549620  -0.019736  -0.024006
    27  H    0.410203  -0.019736   0.543356  -0.026255
    28  H    0.404121  -0.024006  -0.026255   0.546914
 Mulliken charges:
               1
     1  H    0.264534
     2  O   -0.485900
     3  C    0.227439
     4  N   -0.209438
     5  H    0.276270
     6  C   -0.325997
     7  H    0.163936
     8  H    0.156585
     9  H    0.164487
    10  C   -0.180845
    11  H    0.120250
    12  H    0.118976
[...]
 .02822095,0.00023096,-0.00016173,-0.00008017,-0.00048950,-0.00007311,0
 .00097510,0.00215867,-0.00028659,-0.00246550,-0.00033036,0.00031253,0.
 00016445,0.00004166,-0.00003895,0.00004907,0.00005422,0.00010451,-0.00
 016425,-0.00002156,-0.00001014,0.00002092,0.00000847,-0.00002787,-0.00
 000361,-0.00005645,0.00002913,0.00005564,-0.00025779,0.00010103,0.0003
 5577,-0.00015101,-0.00010917,-0.00002795,0.00003018,0.00001606,-0.0000
 0752,-0.00376448,-0.00300606,0.00046103,-0.00296716,0.00741015,-0.0028
 3189,-0.01265885,-0.05211144,-0.00131573,0.00294554,0.00125427,0.00164
 244,-0.10417244,-0.09417197,-0.01294286,-0.00711229,-0.00033321,-0.003
 66765,0.00875548,0.01658665,-0.00153377,0.00363485,0.00037923,0.002782
 67,-0.00096969,-0.00336678,-0.00032586,0.10674114,0.00048643,-0.000263
 94,-0.00016082,-0.00116720,-0.00007363,0.00137409,0.00370420,-0.000154
 80,-0.00331567,-0.00070090,0.00055565,0.00032838,0.00006823,-0.0000577
 1,0.00009230,0.00010291,0.00019868,-0.00031790,-0.00004398,-0.00001762
 ,0.00003988,0.00001931,-0.00005344,-0.00000686,-0.00010929,0.00005289,
 0.00010647,-0.00031776,0.00012271,0.00047549,-0.00022825,-0.00014986,-
 0.00004752,0.00003691,0.00002035,-0.00002928,-0.00576721,-0.00209860,0
 .00057939,0.00446052,0.00169938,0.00191576,-0.00876168,-0.03337463,0.0
 0143783,0.00153204,0.00548789,-0.00060638,-0.09409127,-0.32563859,-0.0
 0057370,0.00198397,0.00465786,0.00042336,-0.02783738,-0.05473001,-0.00
 262157,-0.00189662,0.01039127,-0.00213885,-0.00319464,-0.00903816,-0.0
 0016594,0.12533823,0.40099421,0.00003147,-0.00004815,-0.00000456,0.000
 15950,-0.00010167,0.00016442,0.00018467,0.00002742,-0.00058751,-0.0000
 2703,0.00005495,0.00003291,0.00000576,-0.00001174,0.00000822,0.0000033
 1,0.00001734,-0.00002392,-0.00000297,-0.00000112,0.00000366,0.,-0.0000
 0262,0.00000166,-0.00000797,0.00000182,0.00000974,-0.00008532,0.000008
 16,0.00007665,-0.00003242,-0.00002544,-0.00000698,0.00001003,0.0000053
 8,0.00000659,-0.00063195,-0.00081159,0.00054723,-0.00286901,0.00289015
 ,0.00351253,-0.00569729,-0.01274702,0.00737000,0.00158402,-0.00054566,
 -0.00211576,-0.01277218,-0.00072742,-0.03866613,-0.00390623,-0.0002867
 6,0.00302288,0.00309398,0.01197458,0.00776077,0.00297899,-0.00127129,-
 0.00435384,-0.00024208,-0.00010372,0.00083312,0.01476680,0.00165997,0.
 02605484,0.00040115,-0.00021167,-0.00015768,-0.00086039,-0.00015371,0.
 00121727,0.00321330,0.00033696,-0.00299625,-0.00067379,0.00036433,0.00
 040496,0.00007942,-0.00006657,0.00006934,0.00007873,0.00019114,-0.0002
 7298,-0.00004138,-0.00001390,0.00003331,0.00001580,-0.00003831,-0.0000
 0240,-0.00009321,0.00004088,0.00009606,-0.00019315,0.00005834,0.000297
 20,-0.00015794,-0.00011073,-0.00002455,0.00003706,0.00001646,-0.000005
 93,-0.00594911,0.00137360,-0.00015120,0.00106355,-0.00894850,-0.000511
 37,0.00356769,-0.00068921,0.00213236,-0.03045517,0.05032855,-0.0176158
 7,-0.00548796,-0.00350498,-0.00270329,-0.16982501,0.12722242,-0.056034
 06,0.00049779,-0.00081131,-0.00220265,-0.00346696,0.00464547,-0.001749
 83,0.00361112,-0.00158771,0.00312198,0.00139486,0.00163754,0.00002935,
 0.19485421,-0.00052164,0.00018212,0.00018109,0.00085150,0.00013141,-0.
 00102769,-0.00271621,-0.00020650,0.00235178,0.00053390,-0.00033280,-0.
 00029497,-0.00005837,0.00004694,-0.00007160,-0.00007708,-0.00013054,0.
 00026181,0.00004349,0.00001180,-0.00003755,-0.00001454,0.00003511,0.00
 000216,0.00007848,-0.00003885,-0.00008104,0.00018649,-0.00005542,-0.00
 028325,0.00014815,0.00009742,0.00002938,-0.00002558,-0.00000955,0.0000
 1855,0.00418052,0.00093030,-0.00026421,-0.00542231,-0.00190163,-0.0010
 5907,-0.00132000,0.00373548,-0.00115533,0.00651918,-0.01164638,0.00427
 289,-0.00589506,0.00248566,-0.00178700,0.12745096,-0.23868964,0.061319
 95,0.04359546,-0.04475566,0.01906615,0.00472673,-0.00589349,0.00204195
 ,0.00027117,0.01069555,-0.00141352,0.00051129,-0.00567274,0.00085595,-
 0.17006519,0.28583068,0.00016626,-0.00007284,-0.00006929,-0.00055482,0
 .00004171,0.00043662,0.00127430,-0.00010173,-0.00105086,-0.00026601,0.
 00021363,0.00012354,0.00003019,-0.00002259,0.00002989,0.00003705,0.000
 06741,-0.00011066,-0.00001690,-0.00000611,0.00001375,0.00000700,-0.000
 01870,-0.00000167,-0.00003653,0.00001727,0.00003773,-0.00007899,0.0000
 1563,0.00013560,-0.00006895,-0.00004579,-0.00001257,0.00001058,0.00000
 560,-0.00001045,-0.00228286,0.00044691,0.00022171,-0.00080445,-0.00234
 099,0.00482445,0.00214434,-0.00088601,-0.00199086,-0.01292973,0.018145
 28,0.00201990,-0.00233518,-0.00104443,0.00357739,-0.05608728,0.0609055
 8,-0.05920307,-0.00677901,0.00523808,0.00521746,-0.00186479,0.00215964
 ,0.00019485,0.00295709,-0.00188285,-0.00429181,0.00012396,0.00120790,0
 .00070503,0.07260453,-0.08095298,0.05305643,0.00051863,-0.00037315,-0.
 00019507,-0.00106630,-0.00033358,0.00218449,0.00534438,0.00084267,-0.0
 0501933,-0.00106551,0.00062384,0.00054520,0.00009787,-0.00007317,0.000
 12780,0.00014218,0.00032667,-0.00043653,-0.00005931,-0.00002762,0.0000
 4800,0.00002463,-0.00007075,-0.00000550,-0.00015639,0.00006777,0.00015
 729,-0.00038586,0.00016356,0.00059685,-0.00029611,-0.00020313,-0.00007
 902,0.00005801,0.00001954,-0.00003836,-0.01089735,-0.00295363,-0.00089
 618,0.00464509,0.00103176,0.00258859,0.00403373,-0.00033758,0.00039835
 ,0.00325003,0.00313098,-0.00110272,-0.04845708,-0.01580046,-0.01636778
 ,-0.03974100,-0.00270863,-0.01494077,-0.32732143,-0.04896076,-0.088851
 75,-0.00435823,0.00284248,-0.00181153,-0.00249406,-0.00390556,-0.00070
 822,0.00701905,0.00486060,0.00343315,0.00847532,-0.00307435,0.00478545
 ,0.40285278,0.00002926,-0.00009043,0.00001228,-0.00017849,-0.00000941,
 0.00042034,0.00106497,0.00006296,-0.00100832,-0.00020067,0.00015124,0.
 00008108,0.00001312,-0.00001297,0.00002144,0.00002759,0.00007380,-0.00
 007227,-0.00000709,-0.00000584,0.00000408,0.00000567,-0.00001523,-0.00
 000224,-0.00002980,0.00001105,0.00003005,-0.00007359,0.00002726,0.0001
 1419,-0.00005569,-0.00003519,-0.00001393,0.00000816,0.00000414,-0.0000
 0810,-0.00219839,-0.00034926,-0.00003563,0.00064492,0.00293792,-0.0002
 8419,-0.00285216,-0.00796606,0.00035927,0.00596278,-0.00576769,0.00284
 724,0.02838276,0.00886694,0.00902385,-0.04684320,-0.00304609,-0.013795
 54,-0.04891570,-0.08242545,-0.01061469,0.00182528,0.00063836,0.0005780
 9,-0.00300293,-0.00159454,-0.00079862,0.00160548,0.00706898,-0.0008246
 0,-0.00005447,0.00518116,-0.00110765,0.06487465,0.07628116,0.00014290,
 -0.00010345,-0.00006496,-0.00008111,-0.00009340,0.00079340,0.00153693,
 0.00026641,-0.00200364,-0.00034289,0.00020308,0.00018233,0.00002806,-0
 .00001864,0.00003650,0.00003523,0.00010475,-0.00013654,-0.00001796,-0.
 00000725,0.00001434,0.00000918,-0.00002217,-0.00000098,-0.00004812,0.0
 0001782,0.00004917,-0.00015075,0.00005600,0.00023319,-0.00009510,-0.00
 007393,-0.00003111,0.00001462,0.00000636,-0.00001265,-0.00392948,-0.00
 080703,0.00094859,0.00265239,-0.00036135,-0.00193450,0.00070286,0.0012
 6803,0.00436877,-0.00104428,0.00198500,0.00358381,-0.02145451,-0.00522
 938,0.00185069,-0.01051071,0.00016194,0.00468336,-0.08878903,-0.010617
 76,-0.06188473,-0.00194082,0.00090558,0.00009900,-0.00067561,-0.001094
 67,0.00053483,0.00396829,0.00034538,-0.00435392,0.00442145,-0.00198380
 ,-0.00384800,0.11560550,0.01507479,0.05689822,0.00087203,-0.00095810,-
 0.00007452,-0.00078140,-0.00052798,-0.00046970,0.01062809,-0.01712997,
 0.00194653,-0.00174298,-0.00650010,-0.00176120,-0.00029547,0.00004832,
 -0.00025297,-0.00065902,-0.00046801,0.00054320,0.00032900,-0.00002038,
 -0.00016697,0.00007622,0.00004754,-0.00002484,0.00046126,0.00004490,-0
 .00026360,-0.09042528,0.03715343,-0.00011208,-0.00762109,0.02842094,0.
 00044415,-0.00238857,0.00689116,0.00083719,-0.00067515,-0.00011455,-0.
 00037838,0.00019247,0.00014211,0.00018280,-0.00004014,0.00007409,-0.00
 004866,-0.00016656,-0.00033237,-0.00009522,0.00007926,0.00009377,0.000
 01497,0.00005978,-0.00007751,0.00003457,0.00009779,0.00004597,0.000033
 23,-0.00004318,-0.00005035,0.00003974,-0.00016856,-0.00003922,0.000246
 48,-0.00006096,-0.00010473,-0.00000554,-0.00008594,0.00008682,-0.00004
 279,-0.00014416,-0.00002677,-0.00005150,0.56749196,0.00039928,-0.00015
 146,0.00000506,0.00172400,0.00100711,0.00353713,-0.00234960,-0.0304114
 8,-0.00687825,-0.00152358,0.00018260,-0.00078469,-0.00003142,0.0001359
 6,0.00012912,-0.00013712,-0.00002397,0.00006421,0.00014310,-0.00004044
 ,-0.00008576,0.00005745,-0.00001570,-0.00002074,0.00013428,0.00002903,
 -0.00004848,0.04075627,-0.18952422,-0.00306900,0.00136100,-0.00442385,
 -0.00016140,0.00345374,-0.01255699,-0.00127309,0.00183621,0.00031575,-
 0.00065763,-0.00019367,0.00053642,-0.00005484,0.00024293,-0.00010869,0
 .00007541,0.00013431,0.00053127,0.00004305,-0.00002963,0.00000700,0.00
 000234,-0.00006961,-0.00006805,-0.00008867,-0.00004714,0.00002067,-0.0
 0002966,-0.00003888,0.00002991,-0.00001089,-0.00078302,-0.00041412,-0.
 00007817,0.00004390,0.00004067,0.00001395,0.00004050,-0.00002971,0.000
 02648,0.00005702,0.00000333,0.00002768,0.02945436,0.48715862,0.0004477
 3,-0.00043383,0.00024807,-0.00083002,0.00042881,-0.00015558,0.00558550
 ,-0.01230638,-0.00049606,-0.00115960,-0.00244984,-0.00023341,-0.000030
 83,-0.00067086,-0.00026379,-0.00008871,0.00004357,0.00031583,-0.000140
 66,0.00010593,-0.00000987,0.00000274,0.00002126,0.00000593,0.00004107,
 -0.00005339,-0.00002282,0.00088362,-0.00448359,-0.07764704,0.00474886,
 -0.01882379,-0.00076328,-0.00873970,0.03012104,0.00318652,0.00010424,-
 0.00016249,-0.00030531,0.00039211,0.00023180,0.00028951,-0.00002322,0.
 00006402,-0.00001812,0.00015482,0.00071255,-0.00001811,0.00005799,0.00
 013121,0.00000988,0.00006759,-0.00025756,-0.00001076,0.00009208,0.0000
 4949,0.00001921,0.00000982,-0.00010426,0.00003629,-0.00088395,-0.00071
 320,-0.00039496,-0.00006246,-0.00014457,-0.00000491,-0.00008256,0.0000
 9465,-0.00003910,-0.00016514,-0.00004755,-0.00003901,0.00130419,-0.001
 33236,0.57421907,-0.00004116,0.00004592,0.00001672,0.00025945,0.000231
 19,0.00031798,-0.00082501,-0.00077887,-0.00037990,0.00001135,0.0002090
 2,0.00011680,-0.00000423,-0.00007898,0.00003435,0.00000468,0.00003636,
 -0.00006831,0.00005388,-0.00002167,-0.00002657,0.00000416,-0.00000481,
 -0.00000002,0.00000289,0.00002777,0.00003066,-0.00780380,0.00150283,0.
 00507646,0.00072288,0.00196824,-0.00033079,0.00009278,-0.00007487,-0.0
 0026431,0.00043258,-0.00068297,-0.00035474,0.00023744,0.00016459,-0.00
 000313,0.00002298,-0.00005688,0.00004126,-0.00022228,-0.00034326,-0.00
 002588,-0.00002192,-0.00003450,0.00000661,-0.00003148,0.00006045,-0.00
 004280,-0.00003028,-0.00001645,-0.00002827,-0.00001266,0.00003744,-0.0
 0002385,-0.00087580,0.00000559,-0.00034835,0.00002612,0.00005555,0.000
 00234,0.00003716,-0.00003399,0.00001970,0.00003983,0.00001315,0.000025
 41,-0.22817730,0.01885047,0.12652808,0.24659576,0.00000944,-0.00008654
 ,-0.00001092,-0.00058337,0.00002027,-0.00009142,0.00256877,0.00103065,
 -0.00094179,-0.00022400,0.00014372,0.00013204,0.00004009,0.00009785,-0
 .00002268,0.00007581,0.00008580,0.00002336,-0.00014025,0.00004602,0.00
 004875,-0.00001045,-0.00000548,-0.00000533,-0.00008351,-0.00003274,0.0
 0002554,0.02718194,-0.00380675,-0.01930852,0.00168578,-0.00625403,-0.0
 0040429,-0.00040211,0.00144332,0.00038128,-0.00049544,0.00044151,0.000
 68464,-0.00062351,-0.00009476,-0.00000727,0.00014204,-0.00009249,0.000
 03081,-0.00020864,-0.00044793,-0.00006006,-0.00002659,-0.00006360,-0.0
 0002348,-0.00006430,0.00009707,-0.00003603,-0.00008171,-0.00000764,-0.
 00001938,-0.00004837,0.00008468,-0.00000181,0.00017812,0.00021804,0.00
 012774,0.00005812,0.00011244,0.00000784,0.00007632,-0.00006799,0.00002
 691,0.00011090,0.00002811,0.00003250,0.01630369,-0.04733045,-0.0112584
 2,-0.02237573,0.05324731,0.00003984,-0.00005930,-0.00002023,-0.0005484
 8,-0.00016565,0.00007641,0.00175577,-0.00004218,-0.00046202,-0.0001269
 2,-0.00009291,-0.00005241,-0.00000283,0.00005010,0.00000188,-0.0000155
 6,0.00001110,0.00000781,-0.00001046,0.00000530,0.00001140,0.00000389,-
 0.00000600,-0.00000497,-0.00000309,0.00000135,-0.00000450,-0.00033553,
 -0.00068318,-0.00099456,-0.00011288,0.00000871,0.00136808,-0.00042939,
 -0.00045933,0.00056980,-0.00037368,0.00071688,0.00039841,-0.00035050,-
 0.00015696,-0.00009549,0.00005368,-0.00008510,0.00001250,-0.00029027,-
 0.00104484,-0.00001485,-0.00002979,-0.00010890,-0.00000989,-0.00006603
 ,0.00026097,-0.00001924,-0.00007977,-0.00004125,-0.00001197,-0.0000554
 9,0.00011132,-0.00001835,0.00069129,0.00083540,0.00012099,0.00005880,0
 .00014535,0.00000462,0.00007783,-0.00008192,0.00003061,0.00013639,0.00
 004796,0.00003151,0.12572501,-0.01276200,-0.13457656,-0.13859241,0.014
 15361,0.14093823,-0.00002247,0.00001542,0.00002462,0.00005296,-0.00024
 005,0.00059292,-0.00020101,-0.00087470,-0.00016487,-0.00002605,0.00020
 593,-0.00005453,0.00000832,-0.00008821,0.00002771,0.00006393,0.0000018
 4,-0.00005194,-0.00000489,-0.00001183,-0.00000216,-0.00000250,-0.00000
 096,0.00000986,-0.00001381,-0.00000011,0.00001270,-0.00310472,0.003826
 40,-0.00968938,0.00007690,-0.00041529,-0.00036669,0.00027826,0.0021786
 9,0.00032241,0.00002614,-0.00011760,-0.00002403,0.00002728,-0.00002464
 ,-0.00003519,-0.00000152,-0.00001182,0.00001316,0.00000183,-0.00005467
 ,0.00003481,-0.00000703,-0.00001895,-0.00000335,-0.00000568,0.00003458
 ,-0.00001228,-0.00001190,-0.00000901,0.00000169,-0.00000190,0.00001345
 ,-0.00000619,0.00027338,0.00028675,-0.00013622,0.00000688,0.00001874,0
 .00000105,0.00001171,-0.00000940,0.00000475,0.00002265,0.00000710,0.00
 000640,-0.05823174,0.01898118,-0.05089079,0.00661126,-0.00909703,0.024
 36457,0.05872437,-0.00001445,-0.00008542,-0.00008640,-0.00036352,0.001
 46817,-0.00142147,0.00143249,0.00017439,0.00367551,-0.00028153,0.00016
 025,-0.00039575,-0.00004489,0.00045279,0.00004892,0.00000222,-0.000006
 52,0.00000173,-0.00002613,0.00001615,0.00002754,0.00002391,-0.00002111
 ,-0.00002581,-0.00000972,-0.00001024,-0.00002261,0.00646535,-0.0127303
 0,0.03016594,-0.00010138,0.00140643,-0.00031314,0.00184840,-0.00607933
 ,-0.00089690,-0.00022236,-0.00017690,-0.00038954,0.00004874,-0.0000284
 0,0.00003128,-0.00004412,-0.00002441,0.00000136,-0.00011232,-0.0001743
 0,0.00000412,0.00000482,-0.00001951,0.00000222,-0.00000913,0.00003045,
 -0.00000630,-0.00000703,-0.00000104,0.00000163,-0.00000876,0.00001312,
 -0.00000128,0.00029572,0.00010617,-0.00009631,0.00000176,0.00001486,-0
 .00000243,0.00000398,-0.00000616,0.00000219,0.00000523,0.00000411,0.00
 000051,0.01815206,-0.07420917,0.08094643,-0.00106954,0.00001439,-0.002
 58082,-0.02338533,0.08343413,-0.00006394,0.00004873,-0.00000263,0.0006
 9558,-0.00077619,0.00077639,-0.00142650,-0.00050905,-0.00108139,0.0001
 1597,0.00032516,-0.00005103,0.00003384,0.00000850,0.00009156,0.0000311
 6,-0.00000198,-0.00005664,0.00001501,-0.00001433,0.00000145,-0.0000062
 0,0.00000101,0.00001181,-0.00000913,0.00000671,0.00000602,0.00089679,0
 .00014139,0.00247603,-0.00018688,0.00048146,0.00071882,-0.00028277,-0.
 00085796,0.00136570,0.00031816,0.00021906,0.00009909,-0.00013904,0.000
 00393,-0.00008948,0.00003692,0.00000434,0.00001338,0.00008538,0.000269
 32,0.00001055,-0.00000942,0.00000399,-0.00000214,-0.00000764,-0.000037
 60,-0.00000381,-0.00000369,0.00000858,-0.00000585,0.00000778,-0.000007
 42,-0.00000028,-0.00029220,-0.00027396,0.00026660,0.00000484,-0.000005
 17,0.00000123,0.00000342,-0.00000215,0.00000447,0.00000845,-0.00000349
 ,0.00000346,-0.05086444,0.08388828,-0.27569381,-0.00463378,0.00498757,
 -0.01507914,0.05674457,-0.09140308,0.29620476,-0.00008183,0.00013609,-
 0.00000472,0.00033965,-0.00048707,0.00024487,-0.00112090,0.00209404,-0
 .00018932,0.00016725,0.00077467,0.00019111,0.00002512,0.00000151,0.000
 02081,0.00006217,0.00002131,-0.00004844,-0.00002501,0.00000133,0.00001
 178,-0.00001315,0.00000507,0.00001211,-0.00003754,-0.00000553,0.000024
 54,0.00823729,0.00844954,0.00549576,0.00081571,-0.00068608,-0.00000830
 ,0.00032845,-0.00071217,0.00008214,0.00027613,-0.00050117,-0.00026658,
 0.00032291,0.00010926,0.00001947,-0.00004675,0.00005649,-0.00000666,0.
 00015761,0.00055702,0.00001410,0.00001445,0.00005815,0.00000953,0.0000
 4181,-0.00013019,0.00001222,0.00005423,0.00001771,0.00000514,0.0000363
 6,-0.00006490,0.00000533,-0.00052628,-0.00046261,-0.00009790,-0.000035
 53,-0.00008425,-0.00000441,-0.00004886,0.00004957,-0.00001692,-0.00008
 140,-0.00002595,-0.00001735,-0.18858038,-0.11246633,-0.07732282,-0.017
 10928,-0.01396603,-0.01148399,-0.00455066,-0.00258446,-0.00107223,0.20
 137844,0.00037795,-0.00037454,-0.00002948,-0.00090724,0.00028996,-0.00
 081970,0.00572611,-0.00221968,0.00227701,-0.00087097,-0.00218650,-0.00
 067504,-0.00009610,0.00013484,-0.00013864,-0.00020413,-0.00018644,0.00
 027957,0.00002096,0.00004247,-0.00002343,0.00002360,0.00002267,-0.0000
 0682,0.00014105,-0.00002619,-0.00011111,-0.02386472,-0.01986260,-0.013
 34120,0.00009800,0.00142848,-0.00023752,-0.00030849,0.00113592,0.00060
 607,-0.00087497,-0.00026265,-0.00016000,0.00042133,0.00012589,0.000292
 43,-0.00009037,0.00007879,-0.00005151,-0.00007854,-0.00025349,-0.00004
 931,0.00005580,0.00008631,0.00000164,0.00008003,-0.00003656,0.00003178
 ,0.00009196,0.00001074,0.00003215,-0.00000208,-0.00006524,0.00003319,0
 .00014237,0.00020669,0.00001383,-0.00005532,-0.00009408,-0.00000629,-0
 .00008024,0.00007344,-0.00003760,-0.00013529,-0.00002236,-0.00004301,-
 0.11060913,-0.13069003,-0.05970869,0.00236392,0.00117921,0.00202228,0.
 00878953,0.00627738,0.00349433,0.11984498,0.14518758,0.00002614,-0.000
 00004,-0.00001257,0.00018106,-0.00092466,0.00073751,0.00019938,-0.0000
 4296,-0.00073550,-0.00010488,0.00006045,0.00001192,0.00001736,0.000026
 37,0.00000801,-0.00003777,0.00000432,0.00002414,0.00000309,0.00000993,
 0.00000609,-0.00000761,0.00000742,0.00001127,0.00001036,0.00000351,0.0
 0000682,-0.00016816,0.00072214,-0.00130685,-0.00017326,-0.00005878,-0.
 00009553,0.00041301,-0.00018314,0.00041206,-0.00023119,0.00030393,0.00
 029265,-0.00009788,-0.00007550,-0.00001669,0.00000585,0.00001367,-0.00
 000839,-0.00001067,-0.00010382,-0.00001731,0.00000417,-0.00000116,-0.0
 0000677,0.00000394,0.00001367,0.00000893,0.00000119,-0.00000026,0.0000
 0179,-0.00000424,0.00000377,0.00000149,0.00013255,0.00007726,0.0001263
 8,-0.00000055,0.00000268,0.00000145,0.00000157,-0.00000022,-0.00000107
 ,0.00000239,0.00000214,-0.00000113,-0.07673966,-0.06047708,-0.08763783
 ,0.01290673,0.01152882,0.00779192,-0.02072363,-0.01726752,-0.00998512,
 0.08439073,0.06635506,0.09038235\\-0.00000029,0.00000143,0.00000034,0.
 00000073,-0.00000222,-0.00000157,-0.00000092,0.00000633,-0.00000048,0.
 00000270,-0.00000285,0.00000124,-0.00000074,-0.00000017,0.00000010,-0.
 00000013,-0.00000163,0.00000025,0.,-0.00000004,0.00000150,0.00000095,-
 0.00000103,0.00000088,0.00000065,-0.00000042,0.00000148,-0.00000252,-0
 .00000213,0.00000205,0.00000124,0.00000138,0.00000230,-0.00000117,0.00
 000012,0.00000103,-0.00000052,-0.00000466,-0.00000165,-0.00000175,0.00
 000252,0.00000131,-0.00000070,0.00000023,-0.00000013,-0.00000027,-0.00
 000037,-0.00000191,0.00000002,0.00000032,-0.00000057,-0.00000003,0.000
 00005,-0.00000135,0.,0.00000043,-0.00000155,-0.00000031,0.00000021,0.0
 0000065,-0.00000427,-0.00000108,-0.00000108,-0.00000032,0.00000032,-0.
 00000092,0.00000038,0.00000028,-0.00000158,0.00000002,0.00000036,-0.00
 000168,0.00000354,0.00000210,-0.00000171,0.00000137,0.00000037,0.00000
 231,0.00000043,0.00000021,0.00000105,0.00000190,-0.00000007,-0.0000003
 0\\\@


 WE SHOULD BE CAREFUL TO GET OUT OF AN EXPERIENCE ONLY THE WISDOM
 THAT IS IN IT -- AND STOP THERE;
 LEST WE BE LIKE THE CAT THAT SITS DOWN ON A HOT STOVE-LID.
 SHE WILL NEVER SIT DOWN ON A HOT STOVE LID AGAIN;
 BUT ALSO SHE WILL NEVER SIT DOWN ON A COLD ONE ANY MORE.

                                                     -- MARK TWAIN
 Job cpu time:       0 days  8 hours 44 minutes 10.9 seconds.
 Elapsed time:       0 days  0 hours 21 minutes 52.1 seconds.
 File lengths (MBytes):  RWF=   1078 Int=      0 D2E=      0 Chk=     43 Scr=      1
 Normal termination of Gaussian 16 at Thu Aug 29 05:56:02 2024.
