 Entering Gaussian System, Link 0=g16
 Input=input.com
 Output=input.log
 Initial command:
 /share/apps/g16.b01_avx2/g16/l1.exe "/scratch/Gau-4137906.inp" -scrdir="/scratch/"
 Entering Link 1 = /share/apps/g16.b01_avx2/g16/l1.exe PID=   4137908.
  
 Copyright (c) 1988-2017, Gaussian, Inc.  All Rights Reserved.
  
 This is part of the Gaussian(R) 16 program.  It is based on
 the Gaussian(R) 09 system (copyright 2009, Gaussian, Inc.),
 the Gaussian(R) 03 system (copyright 2003, Gaussian, Inc.),
 the Gaussian(R) 98 system (copyright 1998, Gaussian, Inc.),
 the Gaussian(R) 94 system (copyright 1995, Gaussian, Inc.),
 the Gaussian 92(TM) system (copyright 1992, Gaussian, Inc.),
 the Gaussian 90(TM) system (copyright 1990, Gaussian, Inc.),
 the Gaussian 88(TM) system (copyright 1988, Gaussian, Inc.),
 the Gaussian 86(TM) system (copyright 1986, Carnegie Mellon
 University), and the Gaussian 82(TM) system (copyright 1983,
 Carnegie Mellon University). Gaussian is a federally registered
 trademark of Gaussian, Inc.
  
 This software contains proprietary and confidential information,
 including trade secrets, belonging to Gaussian, Inc.
  
 This software is provided under written license and may be
 used, copied, transmitted, or stored only in accord with that
 written license.
  
 The following legend is applicable only to US Government
 contracts under FAR:
  
                    RESTRICTED RIGHTS LEGEND
  
 Use, reproduction and disclosure by the US Government is
 subject to restrictions as set forth in subparagraphs (a)
 and (c) of the Commercial Computer Software - Restricted
 Rights clause in FAR 52.227-19.
  
 Gaussian, Inc.
 340 Quinnipiac St., Bldg. 40, Wallingford CT 06492
  
  
 ---------------------------------------------------------------
 Warning -- This program may not be used in any manner that
 competes with the business of Gaussian, Inc. or will provide
 assistance to any competitor of Gaussian, Inc.  The licensee
 of this program is prohibited from giving any competitor of
 Gaussian, Inc. access to this program.  By using this program,
 the user acknowledges that Gaussian, Inc. is engaged in the
 business of creating and licensing software in the field of
 computational chemistry and represents and warrants to the
 licensee that it is not a competitor of Gaussian, Inc. and that
 it will not use this program in any manner prohibited above.
 ---------------------------------------------------------------
  

 Cite this work as:
 Gaussian 16, Revision B.01,
 M. J. Frisch, G. W. Trucks, H. B. Schlegel, G. E. Scuseria, 
 M. A. Robb, J. R. Cheeseman, G. Scalmani, V. Barone, 
 G. A. Petersson, H. Nakatsuji, X. Li, M. Caricato, A. V. Marenich, 
 J. Bloino, B. G. Janesko, R. Gomperts, B. Mennucci, H. P. Hratchian, 
 J. V. Ortiz, A. F. Izmaylov, J. L. Sonnenberg, D. Williams-Young, 
 F. Ding, F. Lipparini, F. Egidi, J. Goings, B. Peng, A. Petrone, 
 T. Henderson, D. Ranasinghe, V. G. Zakrzewski, J. Gao, N. Rega, 
 G. Zheng, W. Liang, M. Hada, M. Ehara, K. Toyota, R. Fukuda, 
 J. Hasegawa, M. Ishida, T. Nakajima, Y. Honda, O. Kitao, H. Nakai, 
 T. Vreven, K. Throssell, J. A. Montgomery, Jr., J. E. Peralta, 
 F. Ogliaro, M. J. Bearpark, J. J. Heyd, E. N. Brothers, K. N. Kudin, 
 V. N. Staroverov, T. A. Keith, R. Kobayashi, J. Normand, 
 K. Raghavachari, A. P. Rendell, J. C. Burant, S. S. Iyengar, 
 J. Tomasi, M. Cossi, J. M. Millam, M. Klene, C. Adamo, R. Cammi, 
 J. W. Ochterski, R. L. Martin, K. Morokuma, O. Farkas, 
 J. B. Foresman, and D. J. Fox, Gaussian, Inc., Wallingford CT, 2016.
 
 ******************************************
 Gaussian 16:  ES64L-G16RevB.01 20-Dec-2017
                19-Aug-2024 
 ******************************************
 %nproc=24
 Will use up to   24 processors via shared memory.
 %mem=64GB
 ----------------------------------------------------------------------
 #P PBE1PBE/def2TZVP opt freq EmpiricalDispersion=GD3 Int=(grid=99590) 
 scrf=(iefpcm, solvent=water)
 ----------------------------------------------------------------------
 1/18=20,19=15,26=6,38=1/1,3;
 2/9=110,12=2,17=6,18=5,40=1/2;
 3/5=44,7=101,11=2,25=1,30=1,70=2201,71=1,72=1,74=-13,75=99590,124=31/1,2,3;
 4//1;
 5/5=2,38=5,53=1/2;
 6/7=2,8=2,9=2,10=2,28=1/1;
 7//1,2,3,16;
 1/18=20,19=15,26=6/3(2);
 2/9=110/2;
 99//99;
 2/9=110/2;
 3/5=44,7=101,11=2,25=1,30=1,70=2205,71=1,72=1,74=-13,75=99590,124=31/1,2,3;
 4/5=5,16=3,69=1/1;
 5/5=2,38=5,53=1/2;
 7//1,2,3,16;
 1/18=20,19=15,26=6/3(-5);
 2/9=110/2;
 6/7=2,8=2,9=2,10=2,19=2,28=1/1;
 99/9=1/99;
 Leave Link    1 at Mon Aug 19 18:11:28 2024, MaxMem=  8589934592 cpu:               1.0 elap:               0.0
 (Enter /share/apps/g16.b01_avx2/g16/l101.exe)
 -----------------------------
 pfp_ester_plus_BetaC-reactant
 -----------------------------
 Symbolic Z-matrix:
 Charge =  0 Multiplicity = 1
 O                     2.46439   0.53707  -1.37593 
 C                     1.86681  -0.47841  -1.09724 
 O                     0.47932  -0.64068  -1.3443 
 C                    -0.72373  -0.40231  -0.80204 
 C                    -1.30214  -1.30717   0.09298 
 C                    -1.42081   0.7569   -1.14863 
 C                    -2.54434  -1.03714   0.65 
 C                    -2.66282   1.01623  -0.5836 
 C                    -3.22613   0.12648   0.31964 
 F                    -0.76455  -2.21863   0.32899 
 F                    -0.97247   1.42743  -1.87401 
 F                    -2.98773  -1.74567   1.34105 
 F                    -3.19785   1.91802  -0.85988 
 F                    -4.19864   0.32973   0.75143 
 C                     2.41727  -1.6309   -0.23681 
 C                     3.87829  -1.84192  -0.50444 
 H                     1.83434  -2.55353  -0.47549 
 H                     2.24465  -1.37741   0.83741 
 H                     4.27799  -2.67778   0.11953 
 H                     4.05052  -2.09532  -1.57878 
 H                     4.46093  -0.91904  -0.2659 
 
 ITRead=  0  0  0  0  0  0  0  0  0  0  0  0  0  0  0  0  0  0  0  0
 ITRead=  0
 MicOpt= -1 -1 -1 -1 -1 -1 -1 -1 -1 -1 -1 -1 -1 -1 -1 -1 -1 -1 -1 -1
 MicOpt= -1
 NAtoms=     21 NQM=       21 NQMF=       0 NMMI=      0 NMMIF=      0
                NMic=       0 NMicF=      0.
                    Isotopes and Nuclear Properties:
 (Nuclear quadrupole moments (NQMom) in fm**2, nuclear magnetic moments (NMagM)
  in nuclear magnetons)

  Atom         1           2           3           4           5           6           7           8           9          10
 IAtWgt=          16          12          16          12          12          12          12          12          12          19
 AtmWgt=  15.9949146  12.0000000  15.9949146  12.0000000  12.0000000  12.0000000  12.0000000  12.0000000  12.0000000  18.9984032
 NucSpn=           0           0           0           0           0           0           0           0           0           1
 AtZEff=  -0.0000000  -0.0000000  -0.0000000  -0.0000000  -0.0000000  -0.0000000  -0.0000000  -0.0000000  -0.0000000  -0.0000000
 NQMom=    0.0000000   0.0000000   0.0000000   0.0000000   0.0000000   0.0000000   0.0000000   0.0000000   0.0000000   0.0000000
 NMagM=    0.0000000   0.0000000   0.0000000   0.0000000   0.0000000   0.0000000   0.0000000   0.0000000   0.0000000   2.6288670
 AtZNuc=   8.0000000   6.0000000   8.0000000   6.0000000   6.0000000   6.0000000   6.0000000   6.0000000   6.0000000   9.0000000

  Atom        11          12          13          14          15          16          17          18          19          20
 IAtWgt=          19          19          19          19          12          12           1           1           1           1
 AtmWgt=  18.9984032  18.9984032  18.9984032  18.9984032  12.0000000  12.0000000   1.0078250   1.0078250   1.0078250   1.0078250
 NucSpn=           1           1           1           1           0           0           1           1           1           1
 AtZEff=  -0.0000000  -0.0000000  -0.0000000  -0.0000000  -0.0000000  -0.0000000  -0.0000000  -0.0000000  -0.0000000  -0.0000000
 NQMom=    0.0000000   0.0000000   0.0000000   0.0000000   0.0000000   0.0000000   0.0000000   0.0000000   0.0000000   0.0000000
 NMagM=    2.6288670   2.6288670   2.6288670   2.6288670   0.0000000   0.0000000   2.7928460   2.7928460   2.7928460   2.7928460
 AtZNuc=   9.0000000   9.0000000   9.0000000   9.0000000   6.0000000   6.0000000   1.0000000   1.0000000   1.0000000   1.0000000

  Atom        21
 IAtWgt=           1
 AtmWgt=   1.0078250
 NucSpn=           1
 AtZEff=  -0.0000000
 NQMom=    0.0000000
 NMagM=    2.7928460
 AtZNuc=   1.0000000
 Leave Link  101 at Mon Aug 19 18:11:28 2024, MaxMem=  8589934592 cpu:               7.3 elap:               0.3
 (Enter /share/apps/g16.b01_avx2/g16/l103.exe)

 GradGradGradGradGradGradGradGradGradGradGradGradGradGradGradGradGradGrad
 Berny optimization.
 Initialization pass.
                           ----------------------------
                           !    Initial Parameters    !
                           ! (Angstroms and Degrees)  !
 --------------------------                            --------------------------
 ! Name  Definition              Value          Derivative Info.                !
 --------------------------------------------------------------------------------
 ! R1    R(1,2)                  1.2108         estimate D2E/DX2                !
 ! R2    R(2,3)                  1.4186         estimate D2E/DX2                !
 ! R3    R(2,15)                 1.54           estimate D2E/DX2                !
 ! R4    R(3,4)                  1.341          estimate D2E/DX2                !
 ! R5    R(4,5)                  1.398          estimate D2E/DX2                !
 ! R6    R(4,6)                  1.3964         estimate D2E/DX2                !
 ! R7    R(5,7)                  1.3879         estimate D2E/DX2                !
 ! R8    R(5,10)                 1.0842         estimate D2E/DX2                !
 ! R9    R(6,8)                  1.3889         estimate D2E/DX2                !
 ! R10   R(6,11)                 1.0848         estimate D2E/DX2                !
 ! R11   R(7,9)                  1.3885         estimate D2E/DX2                !
 ! R12   R(7,12)                 1.0845         estimate D2E/DX2                !
 ! R13   R(8,9)                  1.3874         estimate D2E/DX2                !
 ! R14   R(8,13)                 1.0844         estimate D2E/DX2                !
 ! R15   R(9,14)                 1.0833         estimate D2E/DX2                !
 ! R16   R(15,16)                1.5003         estimate D2E/DX2                !
 ! R17   R(15,17)                1.1171         estimate D2E/DX2                !
 ! R18   R(15,18)                1.1171         estimate D2E/DX2                !
 ! R19   R(16,19)                1.117          estimate D2E/DX2                !
 ! R20   R(16,20)                1.1172         estimate D2E/DX2                !
 ! R21   R(16,21)                1.1172         estimate D2E/DX2                !
 ! A1    A(1,2,3)              122.5868         estimate D2E/DX2                !
 ! A2    A(1,2,15)             125.44           estimate D2E/DX2                !
 ! A3    A(3,2,15)             111.1796         estimate D2E/DX2                !
 ! A4    A(2,3,4)              141.8784         estimate D2E/DX2                !
 ! A5    A(3,4,5)              120.9994         estimate D2E/DX2                !
 ! A6    A(3,4,6)              119.6742         estimate D2E/DX2                !
 ! A7    A(5,4,6)              119.3201         estimate D2E/DX2                !
 ! A8    A(4,5,7)              120.0882         estimate D2E/DX2                !
 ! A9    A(4,5,10)             118.5773         estimate D2E/DX2                !
 ! A10   A(7,5,10)             121.3317         estimate D2E/DX2                !
 ! A11   A(4,6,8)              120.0286         estimate D2E/DX2                !
 ! A12   A(4,6,11)             118.2151         estimate D2E/DX2                !
 ! A13   A(8,6,11)             121.7493         estimate D2E/DX2                !
 ! A14   A(5,7,9)              120.4664         estimate D2E/DX2                !
 ! A15   A(5,7,12)             119.64           estimate D2E/DX2                !
 ! A16   A(9,7,12)             119.8913         estimate D2E/DX2                !
 ! A17   A(6,8,9)              120.5439         estimate D2E/DX2                !
 ! A18   A(6,8,13)             119.5276         estimate D2E/DX2                !
 ! A19   A(9,8,13)             119.9262         estimate D2E/DX2                !
 ! A20   A(7,9,8)              119.5359         estimate D2E/DX2                !
 ! A21   A(7,9,14)             120.2123         estimate D2E/DX2                !
 ! A22   A(8,9,14)             120.2436         estimate D2E/DX2                !
 ! A23   A(2,15,16)            110.7128         estimate D2E/DX2                !
 ! A24   A(2,15,17)            108.191          estimate D2E/DX2                !
 ! A25   A(2,15,18)            108.1922         estimate D2E/DX2                !
 ! A26   A(16,15,17)           110.7248         estimate D2E/DX2                !
 ! A27   A(16,15,18)           110.7282         estimate D2E/DX2                !
 ! A28   A(17,15,18)           108.193          estimate D2E/DX2                !
 ! A29   A(15,16,19)           110.7359         estimate D2E/DX2                !
 ! A30   A(15,16,20)           110.7071         estimate D2E/DX2                !
 ! A31   A(15,16,21)           110.7081         estimate D2E/DX2                !
 ! A32   A(19,16,20)           108.1971         estimate D2E/DX2                !
 ! A33   A(19,16,21)           108.1957         estimate D2E/DX2                !
 ! A34   A(20,16,21)           108.1987         estimate D2E/DX2                !
 ! D1    D(1,2,3,4)            -85.9304         estimate D2E/DX2                !
 ! D2    D(15,2,3,4)            84.3716         estimate D2E/DX2                !
 ! D3    D(1,2,15,16)          -36.9723         estimate D2E/DX2                !
 ! D4    D(1,2,15,17)         -158.4718         estimate D2E/DX2                !
 ! D5    D(1,2,15,18)           84.5322         estimate D2E/DX2                !
 ! D6    D(3,2,15,16)          153.0606         estimate D2E/DX2                !
 ! D7    D(3,2,15,17)           31.5611         estimate D2E/DX2                !
 ! D8    D(3,2,15,18)          -85.4348         estimate D2E/DX2                !
 ! D9    D(2,3,4,5)            -85.8856         estimate D2E/DX2                !
 ! D10   D(2,3,4,6)             95.0324         estimate D2E/DX2                !
 ! D11   D(3,4,5,7)            179.5638         estimate D2E/DX2                !
 ! D12   D(3,4,5,10)            -1.0349         estimate D2E/DX2                !
 ! D13   D(6,4,5,7)             -1.351          estimate D2E/DX2                !
 ! D14   D(6,4,5,10)           178.0503         estimate D2E/DX2                !
 ! D15   D(3,4,6,8)           -179.5041         estimate D2E/DX2                !
 ! D16   D(3,4,6,11)             1.4427         estimate D2E/DX2                !
 ! D17   D(5,4,6,8)              1.3984         estimate D2E/DX2                !
 ! D18   D(5,4,6,11)          -177.6548         estimate D2E/DX2                !
 ! D19   D(4,5,7,9)              0.3569         estimate D2E/DX2                !
 ! D20   D(4,5,7,12)           179.8039         estimate D2E/DX2                !
 ! D21   D(10,5,7,9)          -179.0275         estimate D2E/DX2                !
 ! D22   D(10,5,7,12)            0.4194         estimate D2E/DX2                !
 ! D23   D(4,6,8,9)             -0.454          estimate D2E/DX2                !
 ! D24   D(4,6,8,13)          -179.8923         estimate D2E/DX2                !
 ! D25   D(11,6,8,9)           178.5648         estimate D2E/DX2                !
 ! D26   D(11,6,8,13)           -0.8734         estimate D2E/DX2                !
 ! D27   D(5,7,9,8)              0.5978         estimate D2E/DX2                !
 ! D28   D(5,7,9,14)           179.5632         estimate D2E/DX2                !
 ! D29   D(12,7,9,8)          -178.8477         estimate D2E/DX2                !
 ! D30   D(12,7,9,14)            0.1177         estimate D2E/DX2                !
 ! D31   D(6,8,9,7)             -0.5496         estimate D2E/DX2                !
 ! D32   D(6,8,9,14)          -179.5147         estimate D2E/DX2                !
 ! D33   D(13,8,9,7)           178.8864         estimate D2E/DX2                !
 ! D34   D(13,8,9,14)           -0.0787         estimate D2E/DX2                !
 ! D35   D(2,15,16,19)         179.9967         estimate D2E/DX2                !
 ! D36   D(2,15,16,20)         -59.9975         estimate D2E/DX2                !
 ! D37   D(2,15,16,21)          59.992          estimate D2E/DX2                !
 ! D38   D(17,15,16,19)        -60.0087         estimate D2E/DX2                !
 ! D39   D(17,15,16,20)         59.997          estimate D2E/DX2                !
 ! D40   D(17,15,16,21)        179.9866         estimate D2E/DX2                !
 ! D41   D(18,15,16,19)         59.9984         estimate D2E/DX2                !
 ! D42   D(18,15,16,20)       -179.9958         estimate D2E/DX2                !
 ! D43   D(18,15,16,21)        -60.0063         estimate D2E/DX2                !
 --------------------------------------------------------------------------------
 Trust Radius=3.00D-01 FncErr=5.00D-06 GrdErr=5.00D-06 EigMax=2.50D+02 EigMin=1.00D-04
 Number of steps in this run=    108 maximum allowed number of steps=    126.
 GradGradGradGradGradGradGradGradGradGradGradGradGradGradGradGradGradGrad

 Leave Link  103 at Mon Aug 19 18:11:28 2024, MaxMem=  8589934592 cpu:               0.2 elap:               0.0
 (Enter /share/apps/g16.b01_avx2/g16/l202.exe)
                          Input orientation:                          
 ---------------------------------------------------------------------
 Center     Atomic      Atomic             Coordinates (Angstroms)
 Number     Number       Type             X           Y           Z
 ---------------------------------------------------------------------
      1          8           0        2.464389    0.537069   -1.375930
      2          6           0        1.866806   -0.478406   -1.097239
      3          8           0        0.479317   -0.640683   -1.344295
      4          6           0       -0.723725   -0.402315   -0.802038
      5          6           0       -1.302139   -1.307166    0.092985
      6          6           0       -1.420810    0.756902   -1.148634
      7          6           0       -2.544342   -1.037141    0.650002
      8          6           0       -2.662817    1.016226   -0.583597
      9          6           0       -3.226132    0.126482    0.319645
     10          9           0       -0.764552   -2.218634    0.328987
     11          9           0       -0.972465    1.427425   -1.874008
     12          9           0       -2.987730   -1.745669    1.341053
     13          9           0       -3.197850    1.918018   -0.859882
     14          9           0       -4.198639    0.329734    0.751434
     15          6           0        2.417267   -1.630904   -0.236807
     16          6           0        3.878291   -1.841918   -0.504444
     17          1           0        1.834340   -2.553533   -0.475485
     18          1           0        2.244648   -1.377407    0.837411
     19          1           0        4.277989   -2.677782    0.119532
     20          1           0        4.050518   -2.095321   -1.578782
     21          1           0        4.460925   -0.919036   -0.265902
 ---------------------------------------------------------------------
                    Distance matrix (angstroms):
                    1          2          3          4          5
     1  O    0.000000
     2  C    1.210770   0.000000
     3  O    2.308379   1.418625   0.000000
     4  C    3.372813   2.608406   1.340959   0.000000
     5  C    4.443607   3.485066   2.384022   1.397993   0.000000
     6  C    3.898046   3.512413   2.366856   1.396367   2.411654
     7  C    5.627604   4.777370   3.643750   2.413725   1.387894
     8  C    5.210146   4.797420   3.632770   2.412479   2.776213
     9  C    5.951940   5.320852   4.133714   2.792819   2.410077
    10  F    4.574571   3.462161   2.614768   2.140070   1.084191
    11  F    3.585078   3.506711   2.581731   2.135167   3.384632
    12  F    6.505266   5.578328   4.522444   3.394578   2.142703
    13  F    5.851006   5.608024   4.505903   3.392431   3.860504
    14  F    6.997472   6.392207   5.216997   3.876106   3.391564
    15  C    2.449475   1.540000   2.441867   3.419758   3.748006
    16  C    2.901411   2.501328   3.701533   4.831105   5.242112
    17  H    3.280181   2.166514   2.499983   3.358285   3.422586
    18  H    2.934686   2.166526   2.901551   3.528433   3.624749
    19  H    3.982565   3.483044   4.552195   5.571732   5.746053
    20  H    3.080006   2.759510   3.863216   5.124744   5.662768
    21  H    2.708978   2.759480   4.134443   5.237847   5.787258
                    6          7          8          9         10
     6  C    0.000000
     7  C    2.777770   0.000000
     8  C    1.388919   2.398358   0.000000
     9  C    2.410904   1.388521   1.387377   0.000000
    10  F    3.386422   2.160238   3.860122   3.399858   0.000000
    11  F    1.084796   3.862060   2.165995   3.403466   4.264992
    12  F    3.862207   1.084507   3.381998   2.145940   2.488070
    13  F    2.142298   3.382275   1.084354   2.145154   4.944314
    14  F    3.392501   2.148333   2.147633   1.083293   4.297161
    15  C    4.611277   5.075091   5.738886   5.936834   3.284741
    16  C    5.937114   6.575001   7.138722   7.417989   4.732073
    17  H    4.691281   4.768546   5.742760   5.781271   2.741090
    18  H    4.683507   4.804720   5.641982   5.697298   3.165667
    19  H    6.773597   7.036854   7.893978   8.013475   5.067733
    20  H    6.185114   7.041265   7.465989   7.841561   5.180704
    21  H    6.179223   7.065876   7.388767   7.779899   5.417422
                   11         12         13         14         15
    11  F    0.000000
    12  F    4.946356   0.000000
    13  F    2.494288   4.279120   0.000000
    14  F    4.301868   2.474116   2.473977   0.000000
    15  C    4.850163   5.631767   6.671777   6.970720   0.000000
    16  C    6.007841   7.110371   8.020925   8.457548   1.500250
    17  H    5.067747   5.215824   6.742809   6.798191   1.117146
    18  H    5.056550   5.269446   6.584939   6.666159   1.117140
    19  H    6.956594   7.426414   8.829995   9.016523   2.164537
    20  H    6.142252   7.627885   8.316403   8.908389   2.164276
    21  H    6.132994   7.664730   8.188927   8.808090   2.164288
                   16         17         18         19         20
    16  C    0.000000
    17  H    2.164479   0.000000
    18  H    2.164517   1.809785   0.000000
    19  H    1.117038   2.518115   2.518095   0.000000
    20  H    1.117174   2.517671   3.100735   1.809772   0.000000
    21  H    1.117173   3.100718   2.517794   1.809755   1.809899
                   21
    21  H    0.000000
 Stoichiometry    C9H5F5O2
 Framework group  C1[X(C9H5F5O2)]
 Deg. of freedom    57
 Full point group                 C1      NOp   1
 Largest Abelian subgroup         C1      NOp   1
 Largest concise Abelian subgroup C1      NOp   1
                         Standard orientation:                         
 ---------------------------------------------------------------------
 Center     Atomic      Atomic             Coordinates (Angstroms)
 Number     Number       Type             X           Y           Z
 ---------------------------------------------------------------------
      1          8           0        3.050716    1.622521    0.467470
      2          6           0        2.663290    0.571076    0.008855
      3          8           0        1.401844    0.432649   -0.625249
      4          6           0        0.108526    0.196685   -0.361008
      5          6           0       -0.378220   -1.109622   -0.256017
      6          6           0       -0.772323    1.269097   -0.206489
      7          6           0       -1.718606   -1.332057    0.027069
      8          6           0       -2.111308    1.033394    0.077521
      9          6           0       -2.588176   -0.263595    0.200932
     10          9           0        0.309749   -1.933345   -0.409806
     11          9           0       -0.383298    2.274202   -0.329802
     12          9           0       -2.089102   -2.348430    0.103727
     13          9           0       -2.788568    1.872167    0.194138
     14          9           0       -3.635061   -0.441992    0.414778
     15          6           0        3.324181   -0.800836    0.238379
     16          6           0        4.818268   -0.670379    0.276264
     17          1           0        3.007725   -1.482987   -0.587782
     18          1           0        2.939068   -1.216817    1.201006
     19          1           0        5.298048   -1.665292    0.442795
     20          1           0        5.203001   -0.254294   -0.686509
     21          1           0        5.134405    0.012024    1.102374
 ---------------------------------------------------------------------
 Rotational constants (GHZ):           0.9909865           0.3448022           0.2632219
 Leave Link  202 at Mon Aug 19 18:11:28 2024, MaxMem=  8589934592 cpu:               0.1 elap:               0.0
 (Enter /share/apps/g16.b01_avx2/g16/l301.exe)
 Standard basis: def2TZVP (5D, 7F)
 Ernie: Thresh=  0.10000D-02 Tol=  0.10000D-05 Strict=F.
 There are   606 symmetry adapted cartesian basis functions of A   symmetry.
 There are   526 symmetry adapted basis functions of A   symmetry.
   526 basis functions,   856 primitive gaussians,   606 cartesian basis functions
    60 alpha electrons       60 beta electrons
       nuclear repulsion energy      1204.2684467088 Hartrees.
 IExCor= 1009 DFT=T Ex+Corr=PBE1PBE ExCW=0 ScaHFX=  0.250000
 ScaDFX=  0.750000  0.750000  1.000000  1.000000 ScalE2=  1.000000  1.000000
 IRadAn=  99590 IRanWt=     -1 IRanGd=            0 ICorTp=0 IEmpDi=131
 NAtoms=   21 NActive=   21 NUniq=   21 SFac= 1.00D+00 NAtFMM=   60 NAOKFM=F Big=F
 Integral buffers will be    131072 words long.
 Raffenetti 2 integral format.
 Two-electron integral symmetry is turned on.
 R6Disp:  Grimme-D3 Dispersion energy=       -0.0104794791 Hartrees.
 Nuclear repulsion after empirical dispersion term =     1204.2579672297 Hartrees.
 ------------------------------------------------------------------------------
 Polarizable Continuum Model (PCM)
 =================================
 Model                : PCM.
 Atomic radii         : UFF (Universal Force Field).
 Polarization charges : Total charges.
 Charge compensation  : None.
 Solution method      : On-the-fly selection.
 Cavity type          : Scaled VdW (van der Waals Surface) (Alpha=1.100).
 Cavity algorithm     : GePol (No added spheres)
                        Default sphere list used, NSphG=   21.
                        Lebedev-Laikov grids with approx.  5.0 points / Ang**2.
                        Smoothing algorithm: York/Karplus (Gamma=1.0000).
                        Polarization charges: spherical gaussians, with
                                              point-specific exponents (IZeta= 3).
                        Self-potential: point-specific (ISelfS= 7).
                        Self-field    : sphere-specific E.n sum rule (ISelfD= 2).
 1st derivatives      : Analytical E(r).r(x)/FMM algorithm (CHGder, D1EAlg=3).
                        Cavity 1st derivative terms included.
 Solvent              : Water, Eps=  78.355300 Eps(inf)=   1.777849
 ------------------------------------------------------------------------------
 GePol: Number of generator spheres                  =      21
 GePol: Total number of spheres                      =      21
 GePol: Number of exposed spheres                    =      21 (100.00%)
 GePol: Number of points                             =    2003
 GePol: Average weight of points                     =       0.12
 GePol: Minimum weight of points                     =   0.36D-11
 GePol: Maximum weight of points                     =    0.20577
 GePol: Number of points with low weight             =     106
 GePol: Fraction of low-weight points (<1% of avg)   =       5.29%
 GePol: Cavity surface area                          =    247.247 Ang**2
 GePol: Cavity volume                                =    250.230 Ang**3
 Leave Link  301 at Mon Aug 19 18:11:29 2024, MaxMem=  8589934592 cpu:               1.6 elap:               0.1
 (Enter /share/apps/g16.b01_avx2/g16/l302.exe)
 NPDir=0 NMtPBC=     1 NCelOv=     1 NCel=       1 NClECP=     1 NCelD=      1
         NCelK=      1 NCelE2=     1 NClLst=     1 CellRange=     0.0.
 One-electron integrals computed using PRISM.
 One-electron integral symmetry used in STVInt
   1 Symmetry operations used in ECPInt.
 ECPInt:  NShTT=   19306 NPrTT=   61792 LenC2=   17053 LenP2D=   39386.
 LDataN:  DoStor=T MaxTD1= 6 Len=  172
 NBasis=   526 RedAO= T EigKep=  1.66D-05  NBF=   526
 NBsUse=   526 1.00D-06 EigRej= -1.00D+00 NBFU=   526
 Precomputing XC quadrature grid using
 IXCGrd= 4 IRadAn=       99590 IRanWt=          -1 IRanGd=           0 AccXCQ= 0.00D+00.
 Generated NRdTot=       0 NPtTot=           0 NUsed=           0 NTot=          32
 NSgBfM=   597   597   597   597   597 MxSgAt=    21 MxSgA2=    21.
 Leave Link  302 at Mon Aug 19 18:11:29 2024, MaxMem=  8589934592 cpu:               8.6 elap:               0.4
 (Enter /share/apps/g16.b01_avx2/g16/l303.exe)
 DipDrv:  MaxL=1.
 Leave Link  303 at Mon Aug 19 18:11:29 2024, MaxMem=  8589934592 cpu:               1.2 elap:               0.1
 (Enter /share/apps/g16.b01_avx2/g16/l401.exe)
 ExpMin= 9.52D-02 ExpMax= 3.55D+04 ExpMxC= 1.21D+03 IAcc=4 IRadAn=    199590 AccDes= 0.00D+00
 Harris functional with IExCor= 1009 and IRadAn=  199590 diagonalized for initial guess.
 HarFok:  IExCor= 1009 AccDes= 0.00D+00 IRadAn=    199590 IDoV= 1 UseB2=F ITyADJ=14
 ICtDFT=  3500011 ScaDFX=  1.000000  1.000000  1.000000  1.000000
 FoFCou: FMM=F IPFlag=           0 FMFlag=      100000 FMFlg1=           0
         NFxFlg=           0 DoJE=T BraDBF=F KetDBF=T FulRan=T
         wScrn=  0.000000 ICntrl=       500 IOpCl=  0 I1Cent=   200000004 NGrid=           0
         NMat0=    1 NMatS0=      1 NMatT0=    0 NMatD0=    1 NMtDS0=    0 NMtDT0=    0
 Petite list used in FoFCou.
 Harris En= -994.638770626995    
 JPrj=0 DoOrth=F DoCkMO=F.
 Leave Link  401 at Mon Aug 19 18:11:32 2024, MaxMem=  8589934592 cpu:              48.3 elap:               2.0
 (Enter /share/apps/g16.b01_avx2/g16/l502.exe)
 Integral symmetry usage will be decided dynamically.
 Closed shell SCF:
 Using DIIS extrapolation, IDIIS=  1040.
 NGot=  8589934592 LenX=  8589180401 LenY=  8588812559
 Requested convergence on RMS density matrix=1.00D-08 within 128 cycles.
 Requested convergence on MAX density matrix=1.00D-06.
 Requested convergence on             energy=1.00D-06.
 No special actions if energy rises.
 Fock matrices will be formed incrementally for  20 cycles.

 Cycle   1  Pass 1  IDiag  1:
 FoFJK:  IHMeth= 1 ICntrl=       0 DoSepK=F KAlg= 0 I1Cent=           0 FoldK=F
 IRaf= 830000000 NMat=       1 IRICut=       1 DoRegI=T DoRafI=F ISym2E= 0 IDoP0=0 IntGTp=1.
 FoFCou: FMM=F IPFlag=           0 FMFlag=      100000 FMFlg1=           0
         NFxFlg=           0 DoJE=F BraDBF=F KetDBF=F FulRan=T
         wScrn=  0.000000 ICntrl=         0 IOpCl=  0 I1Cent=           0 NGrid=           0
         NMat0=    1 NMatS0=      1 NMatT0=    0 NMatD0=    1 NMtDS0=    0 NMtDT0=    0
 Symmetry not used in FoFCou.
 Inv3:  Mode=1 IEnd=    12036027.
 Iteration    1 A*A^-1 deviation from unit magnitude is 3.44D-15 for    634.
 Iteration    1 A*A^-1 deviation from orthogonality  is 1.29D-15 for   1432    187.
 Iteration    1 A^-1*A deviation from unit magnitude is 3.22D-15 for    634.
 Iteration    1 A^-1*A deviation from orthogonality  is 1.74D-15 for   1783    107.
 E= -994.244660764596    
 DIIS: error= 1.95D-02 at cycle   1 NSaved=   1.
 NSaved= 1 IEnMin= 1 EnMin= -994.244660764596     IErMin= 1 ErrMin= 1.95D-02
 ErrMax= 1.95D-02  0.00D+00 EMaxC= 1.00D-01 BMatC= 3.78D-01 BMatP= 3.78D-01
 IDIUse=3 WtCom= 8.05D-01 WtEn= 1.95D-01
 Coeff-Com:  0.100D+01
 Coeff-En:   0.100D+01
 Coeff:      0.100D+01
 Gap=     0.105 Goal=   None    Shift=    0.000
 GapD=    0.105 DampG=1.000 DampE=0.500 DampFc=0.5000 IDamp=-1.
 Damping current iteration by 5.00D-01
 RMSDP=2.81D-03 MaxDP=2.84D-01              OVMax= 1.75D-01

 Cycle   2  Pass 1  IDiag  1:
 RMSU=  1.40D-03    CP:  1.01D+00
 E= -994.365275587759     Delta-E=       -0.120614823163 Rises=F Damp=T
 DIIS: error= 4.84D-03 at cycle   2 NSaved=   2.
 NSaved= 2 IEnMin= 2 EnMin= -994.365275587759     IErMin= 2 ErrMin= 4.84D-03
 ErrMax= 4.84D-03  0.00D+00 EMaxC= 1.00D-01 BMatC= 3.48D-02 BMatP= 3.78D-01
 IDIUse=3 WtCom= 9.52D-01 WtEn= 4.84D-02
 Coeff-Com:  0.421D-01 0.958D+00
 Coeff-En:   0.107D+00 0.893D+00
 Coeff:      0.453D-01 0.955D+00
 Gap=     0.146 Goal=   None    Shift=    0.000
 RMSDP=5.80D-04 MaxDP=3.33D-02 DE=-1.21D-01 OVMax= 1.42D-01

 Cycle   3  Pass 1  IDiag  1:
 RMSU=  5.59D-04    CP:  1.01D+00  8.97D-01
 E= -994.492335713446     Delta-E=       -0.127060125687 Rises=F Damp=F
 DIIS: error= 8.26D-03 at cycle   3 NSaved=   3.
 NSaved= 3 IEnMin= 3 EnMin= -994.492335713446     IErMin= 2 ErrMin= 4.84D-03
 ErrMax= 8.26D-03  0.00D+00 EMaxC= 1.00D-01 BMatC= 4.33D-02 BMatP= 3.48D-02
 IDIUse=3 WtCom= 9.91D-02 WtEn= 9.01D-01
 Coeff-Com: -0.564D-01 0.557D+00 0.499D+00
 Coeff-En:   0.000D+00 0.000D+00 0.100D+01
 Coeff:     -0.559D-02 0.552D-01 0.950D+00
 Gap=     0.156 Goal=   None    Shift=    0.000
 RMSDP=7.99D-04 MaxDP=6.35D-02 DE=-1.27D-01 OVMax= 1.47D-01

 Cycle   4  Pass 1  IDiag  1:
 RMSU=  6.22D-04    CP:  1.00D+00  8.58D-01  1.17D-01
 E= -994.406328767395     Delta-E=        0.086006946051 Rises=F Damp=F
 DIIS: error= 1.78D-02 at cycle   4 NSaved=   4.
 NSaved= 4 IEnMin= 3 EnMin= -994.492335713446     IErMin= 2 ErrMin= 4.84D-03
 ErrMax= 1.78D-02  0.00D+00 EMaxC= 1.00D-01 BMatC= 1.61D-01 BMatP= 3.48D-02
 IDIUse=2 WtCom= 0.00D+00 WtEn= 1.00D+00
 Coeff-En:   0.000D+00 0.000D+00 0.739D+00 0.261D+00
 Coeff:      0.000D+00 0.000D+00 0.739D+00 0.261D+00
 Gap=     0.157 Goal=   None    Shift=    0.000
 RMSDP=3.99D-04 MaxDP=3.16D-02 DE= 8.60D-02 OVMax= 6.09D-02

 Cycle   5  Pass 1  IDiag  1:
 RMSU=  7.46D-05    CP:  1.00D+00  7.91D-01  6.05D-01  5.74D-01
 E= -994.517684907464     Delta-E=       -0.111356140069 Rises=F Damp=F
 DIIS: error= 3.79D-03 at cycle   5 NSaved=   5.
 NSaved= 5 IEnMin= 5 EnMin= -994.517684907464     IErMin= 5 ErrMin= 3.79D-03
 ErrMax= 3.79D-03  0.00D+00 EMaxC= 1.00D-01 BMatC= 8.37D-03 BMatP= 3.48D-02
 IDIUse=3 WtCom= 9.62D-01 WtEn= 3.79D-02
 Coeff-Com:  0.607D-02-0.158D-01 0.293D+00-0.409D-02 0.720D+00
 Coeff-En:   0.000D+00 0.000D+00 0.196D+00 0.000D+00 0.804D+00
 Coeff:      0.584D-02-0.152D-01 0.290D+00-0.393D-02 0.724D+00
 Gap=     0.158 Goal=   None    Shift=    0.000
 RMSDP=1.30D-04 MaxDP=1.07D-02 DE=-1.11D-01 OVMax= 2.06D-02

 Cycle   6  Pass 1  IDiag  1:
 RMSU=  2.65D-05    CP:  1.00D+00  8.10D-01  7.30D-01  4.16D-01  6.59D-01
 E= -994.523542870787     Delta-E=       -0.005857963323 Rises=F Damp=F
 DIIS: error= 2.25D-04 at cycle   6 NSaved=   6.
 NSaved= 6 IEnMin= 6 EnMin= -994.523542870787     IErMin= 6 ErrMin= 2.25D-04
 ErrMax= 2.25D-04  0.00D+00 EMaxC= 1.00D-01 BMatC= 5.43D-05 BMatP= 8.37D-03
 IDIUse=3 WtCom= 9.98D-01 WtEn= 2.25D-03
 Coeff-Com:  0.123D-02-0.563D-02 0.110D+00-0.271D-01 0.389D+00 0.532D+00
 Coeff-En:   0.000D+00 0.000D+00 0.000D+00 0.000D+00 0.000D+00 0.100D+01
 Coeff:      0.123D-02-0.562D-02 0.110D+00-0.271D-01 0.389D+00 0.533D+00
 Gap=     0.159 Goal=   None    Shift=    0.000
 RMSDP=1.52D-05 MaxDP=7.87D-04 DE=-5.86D-03 OVMax= 2.79D-03

 Cycle   7  Pass 1  IDiag  1:
 RMSU=  6.89D-06    CP:  1.00D+00  8.11D-01  7.30D-01  4.20D-01  7.36D-01
                    CP:  5.47D-01
 E= -994.523582497206     Delta-E=       -0.000039626420 Rises=F Damp=F
 DIIS: error= 8.20D-05 at cycle   7 NSaved=   7.
 NSaved= 7 IEnMin= 7 EnMin= -994.523582497206     IErMin= 7 ErrMin= 8.20D-05
 ErrMax= 8.20D-05  0.00D+00 EMaxC= 1.00D-01 BMatC= 3.83D-06 BMatP= 5.43D-05
 IDIUse=1 WtCom= 1.00D+00 WtEn= 0.00D+00
 Coeff-Com: -0.127D-03-0.400D-04 0.291D-01-0.155D-01 0.134D+00 0.271D+00
 Coeff-Com:  0.581D+00
 Coeff:     -0.127D-03-0.400D-04 0.291D-01-0.155D-01 0.134D+00 0.271D+00
 Coeff:      0.581D+00
 Gap=     0.159 Goal=   None    Shift=    0.000
 RMSDP=3.86D-06 MaxDP=2.77D-04 DE=-3.96D-05 OVMax= 4.50D-04

 Cycle   8  Pass 1  IDiag  1:
 RMSU=  1.54D-06    CP:  1.00D+00  8.09D-01  7.31D-01  4.21D-01  7.41D-01
                    CP:  6.21D-01  7.27D-01
 E= -994.523585825563     Delta-E=       -0.000003328357 Rises=F Damp=F
 DIIS: error= 1.33D-05 at cycle   8 NSaved=   8.
 NSaved= 8 IEnMin= 8 EnMin= -994.523585825563     IErMin= 8 ErrMin= 1.33D-05
 ErrMax= 1.33D-05  0.00D+00 EMaxC= 1.00D-01 BMatC= 1.20D-07 BMatP= 3.83D-06
 IDIUse=1 WtCom= 1.00D+00 WtEn= 0.00D+00
 Coeff-Com: -0.576D-04 0.853D-04 0.307D-02-0.300D-02 0.170D-01 0.415D-01
 Coeff-Com:  0.129D+00 0.813D+00
 Coeff:     -0.576D-04 0.853D-04 0.307D-02-0.300D-02 0.170D-01 0.415D-01
 Coeff:      0.129D+00 0.813D+00
 Gap=     0.159 Goal=   None    Shift=    0.000
 RMSDP=7.66D-07 MaxDP=4.97D-05 DE=-3.33D-06 OVMax= 9.53D-05

 Cycle   9  Pass 1  IDiag  1:
 RMSU=  5.71D-07    CP:  1.00D+00  8.09D-01  7.31D-01  4.21D-01  7.41D-01
                    CP:  6.20D-01  7.61D-01  9.14D-01
 E= -994.523585901332     Delta-E=       -0.000000075769 Rises=F Damp=F
 DIIS: error= 5.80D-06 at cycle   9 NSaved=   9.
 NSaved= 9 IEnMin= 9 EnMin= -994.523585901332     IErMin= 9 ErrMin= 5.80D-06
 ErrMax= 5.80D-06  0.00D+00 EMaxC= 1.00D-01 BMatC= 2.14D-08 BMatP= 1.20D-07
 IDIUse=1 WtCom= 1.00D+00 WtEn= 0.00D+00
 Coeff-Com: -0.138D-05-0.887D-05-0.149D-03-0.530D-03 0.315D-03 0.291D-02
 Coeff-Com:  0.234D-01 0.439D+00 0.535D+00
 Coeff:     -0.138D-05-0.887D-05-0.149D-03-0.530D-03 0.315D-03 0.291D-02
 Coeff:      0.234D-01 0.439D+00 0.535D+00
 Gap=     0.159 Goal=   None    Shift=    0.000
 RMSDP=3.18D-07 MaxDP=1.70D-05 DE=-7.58D-08 OVMax= 5.07D-05

 Cycle  10  Pass 1  IDiag  1:
 RMSU=  1.50D-07    CP:  1.00D+00  8.09D-01  7.32D-01  4.21D-01  7.40D-01
                    CP:  6.24D-01  7.58D-01  9.87D-01  6.18D-01
 E= -994.523585917345     Delta-E=       -0.000000016013 Rises=F Damp=F
 DIIS: error= 1.09D-06 at cycle  10 NSaved=  10.
 NSaved=10 IEnMin=10 EnMin= -994.523585917345     IErMin=10 ErrMin= 1.09D-06
 ErrMax= 1.09D-06  0.00D+00 EMaxC= 1.00D-01 BMatC= 5.23D-10 BMatP= 2.14D-08
 IDIUse=1 WtCom= 1.00D+00 WtEn= 0.00D+00
 Coeff-Com:  0.335D-06-0.794D-05-0.219D-03 0.345D-05-0.779D-03-0.134D-02
 Coeff-Com: -0.505D-03 0.744D-01 0.179D+00 0.750D+00
 Coeff:      0.335D-06-0.794D-05-0.219D-03 0.345D-05-0.779D-03-0.134D-02
 Coeff:     -0.505D-03 0.744D-01 0.179D+00 0.750D+00
 Gap=     0.159 Goal=   None    Shift=    0.000
 RMSDP=6.73D-08 MaxDP=3.07D-06 DE=-1.60D-08 OVMax= 1.03D-05

 Cycle  11  Pass 1  IDiag  1:
 RMSU=  3.47D-08    CP:  1.00D+00  8.09D-01  7.32D-01  4.21D-01  7.41D-01
                    CP:  6.23D-01  7.61D-01  9.90D-01  7.03D-01  8.99D-01
 E= -994.523585917765     Delta-E=       -0.000000000420 Rises=F Damp=F
 DIIS: error= 3.31D-07 at cycle  11 NSaved=  11.
 NSaved=11 IEnMin=11 EnMin= -994.523585917765     IErMin=11 ErrMin= 3.31D-07
 ErrMax= 3.31D-07  0.00D+00 EMaxC= 1.00D-01 BMatC= 6.52D-11 BMatP= 5.23D-10
 IDIUse=1 WtCom= 1.00D+00 WtEn= 0.00D+00
 Coeff-Com: -0.143D-05 0.585D-06-0.125D-03 0.474D-04-0.492D-03-0.104D-02
 Coeff-Com: -0.221D-02 0.425D-02 0.467D-01 0.329D+00 0.624D+00
 Coeff:     -0.143D-05 0.585D-06-0.125D-03 0.474D-04-0.492D-03-0.104D-02
 Coeff:     -0.221D-02 0.425D-02 0.467D-01 0.329D+00 0.624D+00
 Gap=     0.159 Goal=   None    Shift=    0.000
 RMSDP=2.61D-08 MaxDP=2.28D-06 DE=-4.20D-10 OVMax= 3.08D-06

 Cycle  12  Pass 1  IDiag  1:
 RMSU=  1.40D-08    CP:  1.00D+00  8.09D-01  7.32D-01  4.21D-01  7.40D-01
                    CP:  6.24D-01  7.61D-01  9.94D-01  6.99D-01  9.88D-01
                    CP:  8.62D-01
 E= -994.523585917831     Delta-E=       -0.000000000066 Rises=F Damp=F
 DIIS: error= 1.08D-07 at cycle  12 NSaved=  12.
 NSaved=12 IEnMin=12 EnMin= -994.523585917831     IErMin=12 ErrMin= 1.08D-07
 ErrMax= 1.08D-07  0.00D+00 EMaxC= 1.00D-01 BMatC= 7.32D-12 BMatP= 6.52D-11
 IDIUse=1 WtCom= 1.00D+00 WtEn= 0.00D+00
 Coeff-Com: -0.112D-05 0.252D-05-0.236D-04 0.153D-04-0.848D-04-0.235D-03
 Coeff-Com: -0.783D-03-0.720D-02-0.299D-02 0.385D-01 0.273D+00 0.700D+00
 Coeff:     -0.112D-05 0.252D-05-0.236D-04 0.153D-04-0.848D-04-0.235D-03
 Coeff:     -0.783D-03-0.720D-02-0.299D-02 0.385D-01 0.273D+00 0.700D+00
 Gap=     0.159 Goal=   None    Shift=    0.000
 RMSDP=7.07D-09 MaxDP=3.44D-07 DE=-6.64D-11 OVMax= 1.49D-06

 Error on total polarization charges =  0.01023
 SCF Done:  E(RPBE1PBE) =  -994.523585918     A.U. after   12 cycles
            NFock= 12  Conv=0.71D-08     -V/T= 1.9986
 KE= 9.958756586490D+02 PE=-4.759467363968D+03 EE= 1.564810152171D+03
 Leave Link  502 at Mon Aug 19 18:12:26 2024, MaxMem=  8589934592 cpu:            1287.1 elap:              54.0
 (Enter /share/apps/g16.b01_avx2/g16/l601.exe)
 Copying SCF densities to generalized density rwf, IOpCl= 0 IROHF=0.

 **********************************************************************

            Population analysis using the SCF Density.

 **********************************************************************

 Orbital symmetries:
       Occupied  (A) (A) (A) (A) (A) (A) (A) (A) (A) (A) (A) (A)
                 (A) (A) (A) (A) (A) (A) (A) (A) (A) (A) (A) (A)
                 (A) (A) (A) (A) (A) (A) (A) (A) (A) (A) (A) (A)
                 (A) (A) (A) (A) (A) (A) (A) (A) (A) (A) (A) (A)
                 (A) (A) (A) (A) (A) (A) (A) (A) (A) (A) (A) (A)
       Virtual   (A) (A) (A) (A) (A) (A) (A) (A) (A) (A) (A) (A)
                 (A) (A) (A) (A) (A) (A) (A) (A) (A) (A) (A) (A)
                 (A) (A) (A) (A) (A) (A) (A) (A) (A) (A) (A) (A)
                 (A) (A) (A) (A) (A) (A) (A) (A) (A) (A) (A) (A)
                 (A) (A) (A) (A) (A) (A) (A) (A) (A) (A) (A) (A)
                 (A) (A) (A) (A) (A) (A) (A) (A) (A) (A) (A) (A)
                 (A) (A) (A) (A) (A) (A) (A) (A) (A) (A) (A) (A)
                 (A) (A) (A) (A) (A) (A) (A) (A) (A) (A) (A) (A)
                 (A) (A) (A) (A) (A) (A) (A) (A) (A) (A) (A) (A)
                 (A) (A) (A) (A) (A) (A) (A) (A) (A) (A) (A) (A)
                 (A) (A) (A) (A) (A) (A) (A) (A) (A) (A) (A) (A)
                 (A) (A) (A) (A) (A) (A) (A) (A) (A) (A) (A) (A)
                 (A) (A) (A) (A) (A) (A) (A) (A) (A) (A) (A) (A)
                 (A) (A) (A) (A) (A) (A) (A) (A) (A) (A) (A) (A)
                 (A) (A) (A) (A) (A) (A) (A) (A) (A) (A) (A) (A)
                 (A) (A) (A) (A) (A) (A) (A) (A) (A) (A) (A) (A)
                 (A) (A) (A) (A) (A) (A) (A) (A) (A) (A) (A) (A)
                 (A) (A) (A) (A) (A) (A) (A) (A) (A) (A) (A) (A)
                 (A) (A) (A) (A) (A) (A) (A) (A) (A) (A) (A) (A)
                 (A) (A) (A) (A) (A) (A) (A) (A) (A) (A) (A) (A)
                 (A) (A) (A) (A) (A) (A) (A) (A) (A) (A) (A) (A)
                 (A) (A) (A) (A) (A) (A) (A) (A) (A) (A) (A) (A)
                 (A) (A) (A) (A) (A) (A) (A) (A) (A) (A) (A) (A)
                 (A) (A) (A) (A) (A) (A) (A) (A) (A) (A) (A) (A)
                 (A) (A) (A) (A) (A) (A) (A) (A) (A) (A) (A) (A)
                 (A) (A) (A) (A) (A) (A) (A) (A) (A) (A) (A) (A)
                 (A) (A) (A) (A) (A) (A) (A) (A) (A) (A) (A) (A)
                 (A) (A) (A) (A) (A) (A) (A) (A) (A) (A) (A) (A)
                 (A) (A) (A) (A) (A) (A) (A) (A) (A) (A) (A) (A)
                 (A) (A) (A) (A) (A) (A) (A) (A) (A) (A) (A) (A)
                 (A) (A) (A) (A) (A) (A) (A) (A) (A) (A) (A) (A)
                 (A) (A) (A) (A) (A) (A) (A) (A) (A) (A) (A) (A)
                 (A) (A) (A) (A) (A) (A) (A) (A) (A) (A) (A) (A)
                 (A) (A) (A) (A) (A) (A) (A) (A) (A) (A) (A) (A)
                 (A) (A) (A) (A) (A) (A) (A) (A) (A) (A) (A) (A)
                 (A) (A) (A) (A) (A) (A) (A) (A) (A) (A) (A) (A)
                 (A) (A) (A) (A) (A) (A) (A) (A) (A) (A) (A) (A)
                 (A) (A) (A) (A) (A) (A) (A) (A) (A) (A) (A) (A)
                 (A) (A) (A) (A) (A) (A) (A) (A) (A) (A)
 The electronic state is 1-A.
 Alpha  occ. eigenvalues --  -24.83117 -24.82520 -24.82356 -24.82289 -24.82243
 Alpha  occ. eigenvalues --  -19.24348 -19.22399 -10.38257 -10.28472 -10.28385
 Alpha  occ. eigenvalues --  -10.28257 -10.27525 -10.27507 -10.25834 -10.24848
 Alpha  occ. eigenvalues --  -10.22279  -1.45042  -1.44035  -1.43344  -1.42113
 Alpha  occ. eigenvalues --   -1.41539  -1.13026  -1.07049  -0.87104  -0.81670
 Alpha  occ. eigenvalues --   -0.78161  -0.77560  -0.73836  -0.72783  -0.69819
 Alpha  occ. eigenvalues --   -0.68869  -0.68153  -0.66108  -0.64259  -0.63527
 Alpha  occ. eigenvalues --   -0.63309  -0.61157  -0.61051  -0.60725  -0.59907
 Alpha  occ. eigenvalues --   -0.57652  -0.56918  -0.53423  -0.52062  -0.51560
 Alpha  occ. eigenvalues --   -0.50070  -0.48626  -0.45620  -0.42602  -0.40653
 Alpha  occ. eigenvalues --   -0.39440  -0.38437  -0.37678  -0.36141  -0.34768
 Alpha  occ. eigenvalues --   -0.32528  -0.30785  -0.29892  -0.20326  -0.19046
 Alpha virt. eigenvalues --   -0.03145   0.03888   0.04710   0.06235   0.06673
 Alpha virt. eigenvalues --    0.09136   0.10100   0.10515   0.11879   0.13250
 Alpha virt. eigenvalues --    0.14084   0.15249   0.16372   0.17694   0.18748
 Alpha virt. eigenvalues --    0.19137   0.19507   0.20144   0.21649   0.22893
 Alpha virt. eigenvalues --    0.23173   0.24025   0.25117   0.26117   0.26569
 Alpha virt. eigenvalues --    0.27540   0.28530   0.28939   0.29225   0.31404
 Alpha virt. eigenvalues --    0.32371   0.32612   0.33867   0.34071   0.35013
 Alpha virt. eigenvalues --    0.35698   0.36272   0.37236   0.37820   0.39000
 Alpha virt. eigenvalues --    0.39257   0.40238   0.40868   0.41537   0.41559
 Alpha virt. eigenvalues --    0.42520   0.43184   0.43896   0.44366   0.44979
 Alpha virt. eigenvalues --    0.45588   0.47330   0.48330   0.49192   0.49955
 Alpha virt. eigenvalues --    0.50723   0.51507   0.53060   0.54503   0.54865
 Alpha virt. eigenvalues --    0.56227   0.57831   0.58540   0.59242   0.60262
 Alpha virt. eigenvalues --    0.62356   0.62693   0.63616   0.63906   0.65440
 Alpha virt. eigenvalues --    0.66781   0.68412   0.69064   0.70110   0.71327
 Alpha virt. eigenvalues --    0.72394   0.73121   0.74353   0.75339   0.76259
 Alpha virt. eigenvalues --    0.78086   0.78701   0.79836   0.81699   0.82623
 Alpha virt. eigenvalues --    0.84229   0.84720   0.85447   0.86705   0.87047
 Alpha virt. eigenvalues --    0.87571   0.88857   0.89834   0.90595   0.91775
 Alpha virt. eigenvalues --    0.92371   0.92830   0.94269   0.94984   0.95373
 Alpha virt. eigenvalues --    0.97022   0.97965   0.99062   0.99094   1.00707
 Alpha virt. eigenvalues --    1.02216   1.03230   1.04781   1.06014   1.07721
 Alpha virt. eigenvalues --    1.08649   1.08743   1.09986   1.11025   1.12342
 Alpha virt. eigenvalues --    1.13236   1.14952   1.17034   1.17764   1.18290
 Alpha virt. eigenvalues --    1.19402   1.21612   1.23958   1.26068   1.27716
 Alpha virt. eigenvalues --    1.29167   1.29500   1.32724   1.34871   1.36341
 Alpha virt. eigenvalues --    1.38450   1.39529   1.40915   1.42391   1.44847
 Alpha virt. eigenvalues --    1.47251   1.47690   1.48729   1.51240   1.52706
 Alpha virt. eigenvalues --    1.54016   1.54338   1.55594   1.57719   1.57974
 Alpha virt. eigenvalues --    1.59174   1.60296   1.61319   1.62835   1.66458
 Alpha virt. eigenvalues --    1.66793   1.68899   1.71085   1.72831   1.73824
 Alpha virt. eigenvalues --    1.75031   1.75304   1.76087   1.78152   1.78887
 Alpha virt. eigenvalues --    1.79240   1.81734   1.84374   1.86610   1.87893
 Alpha virt. eigenvalues --    1.88124   1.91932   1.93097   1.93692   1.96316
 Alpha virt. eigenvalues --    1.98242   1.99119   2.02215   2.04459   2.05401
 Alpha virt. eigenvalues --    2.07930   2.10050   2.11790   2.12658   2.13770
 Alpha virt. eigenvalues --    2.14941   2.15647   2.17430   2.20306   2.21450
 Alpha virt. eigenvalues --    2.24384   2.26793   2.29223   2.30143   2.31462
 Alpha virt. eigenvalues --    2.33501   2.34255   2.35653   2.36312   2.36681
 Alpha virt. eigenvalues --    2.37294   2.39225   2.40781   2.45093   2.45504
 Alpha virt. eigenvalues --    2.46480   2.48288   2.51682   2.51869   2.53677
 Alpha virt. eigenvalues --    2.54029   2.54397   2.56696   2.58537   2.60180
 Alpha virt. eigenvalues --    2.60633   2.62946   2.63111   2.63944   2.65418
 Alpha virt. eigenvalues --    2.66491   2.67810   2.69607   2.70421   2.73910
 Alpha virt. eigenvalues --    2.74417   2.75060   2.76048   2.76935   2.77503
 Alpha virt. eigenvalues --    2.77993   2.78569   2.79210   2.81625   2.82468
 Alpha virt. eigenvalues --    2.83297   2.84246   2.85852   2.86079   2.88113
 Alpha virt. eigenvalues --    2.90166   2.92227   2.93758   2.94722   2.95967
 Alpha virt. eigenvalues --    2.96664   2.98750   2.99383   3.00554   3.02687
 Alpha virt. eigenvalues --    3.03896   3.04015   3.05859   3.06159   3.07632
 Alpha virt. eigenvalues --    3.09109   3.10321   3.12156   3.12728   3.13031
 Alpha virt. eigenvalues --    3.15333   3.16521   3.17903   3.18480   3.21150
 Alpha virt. eigenvalues --    3.21624   3.22491   3.23000   3.24310   3.25107
 Alpha virt. eigenvalues --    3.25905   3.27650   3.27782   3.29533   3.30081
 Alpha virt. eigenvalues --    3.32001   3.32676   3.33438   3.34361   3.36507
 Alpha virt. eigenvalues --    3.37022   3.37948   3.38625   3.38744   3.41467
 Alpha virt. eigenvalues --    3.44059   3.44486   3.46945   3.49023   3.49225
 Alpha virt. eigenvalues --    3.50071   3.51348   3.52261   3.52931   3.56283
 Alpha virt. eigenvalues --    3.58716   3.61537   3.62221   3.65897   3.66877
 Alpha virt. eigenvalues --    3.70352   3.73449   3.74042   3.75948   3.77807
 Alpha virt. eigenvalues --    3.80386   3.81921   3.83229   3.84056   3.85578
 Alpha virt. eigenvalues --    3.87411   3.88559   3.88975   3.89682   3.92605
 Alpha virt. eigenvalues --    3.92738   3.95712   3.99094   4.03504   4.06012
 Alpha virt. eigenvalues --    4.06476   4.07000   4.10056   4.12617   4.14123
 Alpha virt. eigenvalues --    4.15785   4.16963   4.18253   4.19682   4.20731
 Alpha virt. eigenvalues --    4.21498   4.23021   4.25628   4.26406   4.29379
 Alpha virt. eigenvalues --    4.30538   4.33277   4.35655   4.36563   4.37729
 Alpha virt. eigenvalues --    4.38301   4.41357   4.42562   4.46829   4.48129
 Alpha virt. eigenvalues --    4.52198   4.57233   4.58025   4.59812   4.61868
 Alpha virt. eigenvalues --    4.62438   4.62840   4.69045   4.75145   4.78158
 Alpha virt. eigenvalues --    4.82035   4.84022   4.87635   4.98089   5.02138
 Alpha virt. eigenvalues --    5.10375   5.15654   5.15998   5.17770   5.23067
 Alpha virt. eigenvalues --    5.25481   5.26109   5.32268   5.37495   5.40438
 Alpha virt. eigenvalues --    5.49197   5.51897   5.56201   5.56945   5.60748
 Alpha virt. eigenvalues --    5.74194   5.75854   5.89649   6.00451   6.14582
 Alpha virt. eigenvalues --    6.29524   6.36196   6.39094   6.45203   6.48807
 Alpha virt. eigenvalues --    6.58997   6.60534   6.73384   6.80251   6.81767
 Alpha virt. eigenvalues --    6.82802   6.83492   6.84562   6.85203   6.86877
 Alpha virt. eigenvalues --    6.87843   6.88526   6.91524   6.93475   6.96528
 Alpha virt. eigenvalues --    7.02536   7.04879   7.09425   7.10910   7.17368
 Alpha virt. eigenvalues --    7.20689   7.24494   7.33257   7.33722   7.35745
 Alpha virt. eigenvalues --    7.36484   7.40759   7.50301   7.51707   7.53806
 Alpha virt. eigenvalues --    7.60015   7.69611   7.74006   7.79458   7.86851
 Alpha virt. eigenvalues --    7.91077   7.98948   8.03317   8.03680   8.12844
 Alpha virt. eigenvalues --    8.18735   8.22766   8.36472   8.38902   8.40688
 Alpha virt. eigenvalues --    8.43476   8.47695   8.51435   8.55984   8.56909
 Alpha virt. eigenvalues --    8.71651   8.73922   8.79044   8.84755   8.89243
 Alpha virt. eigenvalues --    8.92903   8.93032   8.97332   9.03163   9.03773
 Alpha virt. eigenvalues --    9.06974   9.14457   9.16991   9.20708   9.23127
 Alpha virt. eigenvalues --    9.28999   9.33300   9.34945   9.46461   9.69248
 Alpha virt. eigenvalues --   22.32037  22.46628  22.91608  23.12103  23.44474
 Alpha virt. eigenvalues --   23.71499  23.80483  23.92588  25.03271  43.92014
 Alpha virt. eigenvalues --   44.55292  57.37907  57.50833  57.60212  57.70606
 Alpha virt. eigenvalues --   57.82485
          Condensed to atoms (all electrons):
               1          2          3          4          5          6
     1  O    7.828517   0.653337  -0.083331   0.004910   0.001274   0.003893
     2  C    0.653337   4.528248   0.340546  -0.082691  -0.009163  -0.004057
     3  O   -0.083331   0.340546   7.950543   0.156808  -0.003855  -0.015246
     4  C    0.004910  -0.082691   0.156808   5.974768   0.160599   0.172972
     5  C    0.001274  -0.009163  -0.003855   0.160599   5.407156  -0.092638
     6  C    0.003893  -0.004057  -0.015246   0.172972  -0.092638   5.267607
     7  C    0.000130   0.001998   0.008050  -0.132630   0.386667   0.099450
     8  C    0.000372   0.001391   0.012203  -0.192901   0.086938   0.436322
     9  C   -0.000053   0.000403   0.000548   0.104201  -0.209298  -0.185781
    10  F    0.000009  -0.000737   0.006906  -0.100732   0.278413   0.000213
    11  F   -0.001197   0.005270   0.004000  -0.107749  -0.001133   0.315077
    12  F   -0.000000   0.000017  -0.000094   0.018552  -0.076839  -0.000634
    13  F    0.000000  -0.000003  -0.000111   0.019889  -0.000712  -0.066935
    14  F    0.000000  -0.000000  -0.000002  -0.002266   0.014775   0.011659
    15  C   -0.098857   0.342387  -0.115750   0.021942  -0.021170   0.008512
    16  C    0.003386  -0.022128   0.008147  -0.004279   0.000933  -0.000452
    17  H    0.004838  -0.032712   0.007830  -0.000104   0.001390  -0.000613
    18  H   -0.000829  -0.008236   0.000930   0.000888   0.001066  -0.000099
    19  H    0.000335   0.007494  -0.000263   0.000086  -0.000050   0.000009
    20  H    0.000644  -0.001334   0.000355   0.000026   0.000033  -0.000011
    21  H    0.008866  -0.011127   0.000359   0.000091  -0.000051   0.000004
               7          8          9         10         11         12
     1  O    0.000130   0.000372  -0.000053   0.000009  -0.001197  -0.000000
     2  C    0.001998   0.001391   0.000403  -0.000737   0.005270   0.000017
     3  O    0.008050   0.012203   0.000548   0.006906   0.004000  -0.000094
     4  C   -0.132630  -0.192901   0.104201  -0.100732  -0.107749   0.018552
     5  C    0.386667   0.086938  -0.209298   0.278413  -0.001133  -0.076839
     6  C    0.099450   0.436322  -0.185781   0.000213   0.315077  -0.000634
     7  C    5.184981  -0.207721   0.496775  -0.046375  -0.001926   0.236779
     8  C   -0.207721   5.248664   0.496850  -0.001444  -0.060717   0.013461
     9  C    0.496775   0.496850   5.117120   0.008281   0.007934  -0.055546
    10  F   -0.046375  -0.001444   0.008281   8.836816  -0.000145   0.008736
    11  F   -0.001926  -0.060717   0.007934  -0.000145   8.820440  -0.000001
    12  F    0.236779   0.013461  -0.055546   0.008736  -0.000001   8.844112
    13  F    0.014544   0.219421  -0.055616  -0.000001   0.009709  -0.000123
    14  F   -0.063608  -0.063944   0.256581  -0.000082  -0.000090   0.010364
    15  C   -0.002610   0.001401  -0.000455   0.002451   0.000392  -0.000007
    16  C    0.000041  -0.000018   0.000003   0.000841   0.000005  -0.000000
    17  H    0.000131  -0.000077   0.000014   0.003445  -0.000021  -0.000019
    18  H   -0.000048  -0.000075   0.000015  -0.000311  -0.000010   0.000006
    19  H   -0.000004   0.000000  -0.000000  -0.000008   0.000000   0.000000
    20  H    0.000001  -0.000001   0.000000  -0.000003  -0.000000   0.000000
    21  H   -0.000003  -0.000000   0.000000  -0.000007  -0.000000   0.000000
              13         14         15         16         17         18
     1  O    0.000000   0.000000  -0.098857   0.003386   0.004838  -0.000829
     2  C   -0.000003  -0.000000   0.342387  -0.022128  -0.032712  -0.008236
     3  O   -0.000111  -0.000002  -0.115750   0.008147   0.007830   0.000930
     4  C    0.019889  -0.002266   0.021942  -0.004279  -0.000104   0.000888
     5  C   -0.000712   0.014775  -0.021170   0.000933   0.001390   0.001066
     6  C   -0.066935   0.011659   0.008512  -0.000452  -0.000613  -0.000099
     7  C    0.014544  -0.063608  -0.002610   0.000041   0.000131  -0.000048
     8  C    0.219421  -0.063944   0.001401  -0.000018  -0.000077  -0.000075
     9  C   -0.055616   0.256581  -0.000455   0.000003   0.000014   0.000015
    10  F   -0.000001  -0.000082   0.002451   0.000841   0.003445  -0.000311
    11  F    0.009709  -0.000090   0.000392   0.000005  -0.000021  -0.000010
    12  F   -0.000123   0.010364  -0.000007  -0.000000  -0.000019   0.000006
    13  F    8.847767   0.010671  -0.000003   0.000000   0.000000   0.000000
    14  F    0.010671   8.814048   0.000000   0.000000   0.000000   0.000000
    15  C   -0.000003   0.000000   5.106123   0.286752   0.392394   0.373795
    16  C    0.000000   0.000000   0.286752   4.953877  -0.035822  -0.020200
    17  H    0.000000   0.000000   0.392394  -0.035822   0.545149  -0.019458
    18  H    0.000000   0.000000   0.373795  -0.020200  -0.019458   0.522370
    19  H   -0.000000   0.000000  -0.032070   0.401239  -0.004687  -0.004392
    20  H    0.000000  -0.000000  -0.041852   0.410977  -0.004231   0.006394
    21  H   -0.000000  -0.000000  -0.027471   0.397998   0.007358  -0.005766
              19         20         21
     1  O    0.000335   0.000644   0.008866
     2  C    0.007494  -0.001334  -0.011127
     3  O   -0.000263   0.000355   0.000359
     4  C    0.000086   0.000026   0.000091
     5  C   -0.000050   0.000033  -0.000051
     6  C    0.000009  -0.000011   0.000004
     7  C   -0.000004   0.000001  -0.000003
     8  C    0.000000  -0.000001  -0.000000
     9  C   -0.000000   0.000000   0.000000
    10  F   -0.000008  -0.000003  -0.000007
    11  F    0.000000  -0.000000  -0.000000
    12  F    0.000000   0.000000   0.000000
    13  F   -0.000000   0.000000  -0.000000
    14  F    0.000000  -0.000000  -0.000000
    15  C   -0.032070  -0.041852  -0.027471
    16  C    0.401239   0.410977   0.397998
    17  H   -0.004687  -0.004231   0.007358
    18  H   -0.004392   0.006394  -0.005766
    19  H    0.534119  -0.021469  -0.020978
    20  H   -0.021469   0.539973  -0.023962
    21  H   -0.020978  -0.023962   0.543854
 Mulliken charges:
               1
     1  O   -0.326243
     2  C    0.291099
     3  O   -0.278574
     4  C   -0.012381
     5  C    0.075662
     6  C    0.050749
     7  C    0.025377
     8  C    0.009876
     9  C    0.018024
    10  F    0.003735
    11  F    0.010162
    12  F    0.001236
    13  F    0.001502
    14  F    0.011894
    15  C   -0.195904
    16  C   -0.381299
    17  H    0.135193
    18  H    0.153958
    19  H    0.140639
    20  H    0.134459
    21  H    0.130835
 Sum of Mulliken charges =  -0.00000
 Mulliken charges with hydrogens summed into heavy atoms:
               1
     1  O   -0.326243
     2  C    0.291099
     3  O   -0.278574
     4  C   -0.012381
     5  C    0.075662
     6  C    0.050749
     7  C    0.025377
     8  C    0.009876
     9  C    0.018024
    10  F    0.003735
    11  F    0.010162
    12  F    0.001236
    13  F    0.001502
    14  F    0.011894
    15  C    0.093247
    16  C    0.024634
 Electronic spatial extent (au):  <R**2>=           3787.1068
 Charge=             -0.0000 electrons
 Dipole moment (field-independent basis, Debye):
    X=             -1.5864    Y=             -3.6803    Z=              0.2362  Tot=              4.0147
 Quadrupole moment (field-independent basis, Debye-Ang):
   XX=            -80.7661   YY=            -87.1474   ZZ=            -84.0023
   XY=            -10.7407   XZ=             -1.0532   YZ=             -1.5739
 Traceless Quadrupole moment (field-independent basis, Debye-Ang):
   XX=              3.2059   YY=             -3.1755   ZZ=             -0.0304
   XY=            -10.7407   XZ=             -1.0532   YZ=             -1.5739
 Octapole moment (field-independent basis, Debye-Ang**2):
  XXX=            -56.8453  YYY=            -11.1151  ZZZ=              1.3944  XYY=            -30.4034
  XXY=            -34.6274  XXZ=             -5.4672  XZZ=            -16.3392  YZZ=             -1.5122
  YYZ=             -2.2194  XYZ=             -5.7184
 Hexadecapole moment (field-independent basis, Debye-Ang**3):
 XXXX=          -3300.7929 YYYY=           -938.7899 ZZZZ=           -138.4643 XXXY=            -97.5349
 XXXZ=            -38.4394 YYYX=            -25.2791 YYYZ=             -3.5189 ZZZX=            -17.5890
 ZZZY=              0.3365 XXYY=           -740.3862 XXZZ=           -564.3595 YYZZ=           -171.1212
 XXYZ=            -19.8958 YYXZ=             -9.9183 ZZXY=              1.0576
 N-N= 1.204257967230D+03 E-N=-4.759467364507D+03  KE= 9.958756586490D+02
 No NMR shielding tensors so no spin-rotation constants.
 Leave Link  601 at Mon Aug 19 18:12:26 2024, MaxMem=  8589934592 cpu:               4.9 elap:               0.3
 (Enter /share/apps/g16.b01_avx2/g16/l701.exe)
 ... and contract with generalized density number  0.
 Compute integral first derivatives.
 R6Disp: Adding Grimme-D3 dispersion energy 1st derivatives to the gradient.
   1 Symmetry operations used in ECPInt.
 ECPInt:  NShTT=   19306 NPrTT=   61792 LenC2=   17053 LenP2D=   39386.
 LDataN:  DoStor=T MaxTD1= 7 Len=  274
 D1PCM: PCM CHGder 1st derivatives, ID1Alg=3 FixD1E=F DoIter=F DoCFld=F I1PDM=0.
 GePol: Maximum number of non-zero 1st derivatives   =     223
 Leave Link  701 at Mon Aug 19 18:12:28 2024, MaxMem=  8589934592 cpu:              27.9 elap:               1.2
 (Enter /share/apps/g16.b01_avx2/g16/l702.exe)
 L702 exits ... SP integral derivatives will be done elsewhere.
 Leave Link  702 at Mon Aug 19 18:12:28 2024, MaxMem=  8589934592 cpu:               0.4 elap:               0.0
 (Enter /share/apps/g16.b01_avx2/g16/l703.exe)
 Integral derivatives from FoFJK, PRISM(SPDF).
 Compute integral first derivatives, UseDBF=F ICtDFT=           0.
 Calling FoFJK, ICntrl=      2127 FMM=F ISym2X=0 I1Cent= 0 IOpClX= 0 NMat=1 NMatS=1 NMatT=0.
 FoFJK:  IHMeth= 1 ICntrl=    2127 DoSepK=F KAlg= 0 I1Cent=           0 FoldK=F
 IRaf=         0 NMat=       1 IRICut=       1 DoRegI=T DoRafI=F ISym2E= 0 IDoP0=0 IntGTp=1.
 FoFCou: FMM=F IPFlag=           0 FMFlag=      100000 FMFlg1=         800
         NFxFlg=           0 DoJE=F BraDBF=F KetDBF=F FulRan=T
         wScrn=  0.000000 ICntrl=      2127 IOpCl=  0 I1Cent=           0 NGrid=           0
         NMat0=    1 NMatS0=      1 NMatT0=    0 NMatD0=    1 NMtDS0=    0 NMtDT0=    0
 Symmetry not used in FoFCou.
 Leave Link  703 at Mon Aug 19 18:12:54 2024, MaxMem=  8589934592 cpu:             612.8 elap:              25.6
 (Enter /share/apps/g16.b01_avx2/g16/l716.exe)
 Dipole        =-6.24156111D-01-1.44795979D+00 9.29342356D-02
 ***** Axes restored to original set *****
 -------------------------------------------------------------------
 Center     Atomic                   Forces (Hartrees/Bohr)
 Number     Number              X              Y              Z
 -------------------------------------------------------------------
      1        8          -0.020145085   -0.032565081   -0.005893838
      2        6          -0.023463179    0.021840310    0.044418557
      3        8           0.051891343   -0.011260176   -0.031681771
      4        6          -0.027040374    0.015651238    0.027625668
      5        6          -0.195258617    0.383753706   -0.119096186
      6        6          -0.156149132   -0.295565645    0.292840264
      7        6           0.189791780    0.294281146   -0.290861369
      8        6           0.229659573   -0.376285361    0.111002712
      9        6           0.414482831   -0.087253307   -0.183863528
     10        9           0.230454676   -0.408425497    0.114461362
     11        9           0.187086622    0.306398294   -0.317135099
     12        9          -0.202109312   -0.321675136    0.314585505
     13        9          -0.244898398    0.410757001   -0.125067042
     14        9          -0.435633047    0.091252901    0.193762923
     15        6          -0.014179860   -0.003729209   -0.017022971
     16        6           0.024643681   -0.003118522   -0.000972514
     17        1           0.006650106    0.014196563    0.005734285
     18        1          -0.002598608    0.000291630   -0.015012603
     19        1          -0.005089168    0.011877801   -0.008978875
     20        1          -0.001085450    0.003237192    0.015151083
     21        1          -0.007010382   -0.013659848   -0.003996561
 -------------------------------------------------------------------
 Cartesian Forces:  Max     0.435633047 RMS     0.187817721
 Leave Link  716 at Mon Aug 19 18:12:54 2024, MaxMem=  8589934592 cpu:               0.5 elap:               0.0
 (Enter /share/apps/g16.b01_avx2/g16/l103.exe)

 GradGradGradGradGradGradGradGradGradGradGradGradGradGradGradGradGradGrad
 Berny optimization.
 FormGI is forming the generalized inverse of G from B-inverse, IUseBI=4.
 GSVD:  received Info=                   1 from GESDD.
 Internal  Forces:  Max     0.494305001 RMS     0.110565356
 Search for a local minimum.
 Step number   1 out of a maximum of  108
 All quantities printed in internal units (Hartrees-Bohrs-Radians)
 RMS Force = .11057D+00 SwitMx=.10000D-02 MixMth= 1
 Mixed Optimization -- RFO/linear search
 Second derivative matrix not updated -- first step.
 ITU=  0
     Eigenvalues ---    0.00237   0.00628   0.00763   0.01445   0.02138
     Eigenvalues ---    0.02181   0.02190   0.02204   0.02220   0.02244
     Eigenvalues ---    0.02245   0.02247   0.02250   0.02473   0.04411
     Eigenvalues ---    0.05513   0.05838   0.05841   0.09072   0.12594
     Eigenvalues ---    0.16000   0.16000   0.16000   0.21954   0.24760
     Eigenvalues ---    0.24994   0.24996   0.24996   0.24998   0.24999
     Eigenvalues ---    0.24999   0.24999   0.25000   0.25000   0.25000
     Eigenvalues ---    0.25000   0.28519   0.31852   0.31852   0.31855
     Eigenvalues ---    0.31856   0.31866   0.32351   0.42668   0.42875
     Eigenvalues ---    0.43253   0.46430   0.47010   0.47583   0.47687
     Eigenvalues ---    0.56991   0.99592   1.92980   1.93307   1.93482
     Eigenvalues ---    1.93667   1.94694
 RFO step:  Lambda=-5.00679613D-01 EMin= 2.36824250D-03
 Linear search not attempted -- first point.
 Maximum step size (   0.300) exceeded in Quadratic search.
    -- Step size scaled by   0.647
 Iteration  1 RMS(Cart)=  0.03726195 RMS(Int)=  0.00019565
 Iteration  2 RMS(Cart)=  0.00031257 RMS(Int)=  0.00001371
 Iteration  3 RMS(Cart)=  0.00000006 RMS(Int)=  0.00001371
 ITry= 1 IFail=0 DXMaxC= 1.47D-01 DCOld= 1.00D+10 DXMaxT= 3.00D-01 DXLimC= 3.00D+00 Rises=F
 Variable       Old X    -DE/DX   Delta X   Delta X   Delta X     New X
                                 (Linear)    (Quad)   (Total)
    R1        2.28802  -0.03590   0.00000  -0.01552  -0.01552   2.27251
    R2        2.68081  -0.03920   0.00000  -0.02734  -0.02734   2.65347
    R3        2.91018  -0.02034   0.00000  -0.01674  -0.01674   2.89344
    R4        2.53405   0.01829   0.00000   0.01105   0.01105   2.54510
    R5        2.64182   0.01510   0.00000   0.00990   0.00991   2.65173
    R6        2.63875   0.01744   0.00000   0.01145   0.01146   2.65021
    R7        2.62274   0.02716   0.00000   0.01797   0.01797   2.64071
    R8        2.04882   0.48254   0.00000   0.12806   0.12806   2.17688
    R9        2.62468   0.02638   0.00000   0.01750   0.01750   2.64217
   R10        2.04997   0.47877   0.00000   0.12742   0.12742   2.17738
   R11        2.62393   0.03330   0.00000   0.02231   0.02231   2.64623
   R12        2.04942   0.49324   0.00000   0.13109   0.13109   2.18051
   R13        2.62176   0.03386   0.00000   0.02265   0.02264   2.64441
   R14        2.04913   0.49431   0.00000   0.13128   0.13128   2.18041
   R15        2.04713   0.48543   0.00000   0.12828   0.12828   2.17541
   R16        2.83506   0.01118   0.00000   0.00877   0.00877   2.84383
   R17        2.11110  -0.01642   0.00000  -0.01296  -0.01296   2.09814
   R18        2.11109  -0.01397   0.00000  -0.01103  -0.01103   2.10006
   R19        2.11090  -0.01572   0.00000  -0.01241  -0.01241   2.09848
   R20        2.11115  -0.01547   0.00000  -0.01222  -0.01222   2.09893
   R21        2.11115  -0.01579   0.00000  -0.01247  -0.01247   2.09868
    A1        2.13954  -0.01332   0.00000  -0.01123  -0.01128   2.12826
    A2        2.18934   0.00523   0.00000   0.00477   0.00474   2.19408
    A3        1.94045   0.01008   0.00000   0.00894   0.00890   1.94935
    A4        2.47625  -0.03178   0.00000  -0.02738  -0.02738   2.44886
    A5        2.11184  -0.01163   0.00000  -0.00968  -0.00968   2.10216
    A6        2.08871  -0.00817   0.00000  -0.00669  -0.00670   2.08201
    A7        2.08253   0.01979   0.00000   0.01636   0.01637   2.09889
    A8        2.09593  -0.00796   0.00000  -0.00721  -0.00721   2.08872
    A9        2.06956   0.01735   0.00000   0.01513   0.01513   2.08469
   A10        2.11764  -0.00939   0.00000  -0.00791  -0.00791   2.10973
   A11        2.09489  -0.00741   0.00000  -0.00671  -0.00671   2.08818
   A12        2.06324   0.01919   0.00000   0.01670   0.01670   2.07994
   A13        2.12493  -0.01177   0.00000  -0.00998  -0.00998   2.11494
   A14        2.10254  -0.00469   0.00000  -0.00371  -0.00371   2.09882
   A15        2.08811   0.00309   0.00000   0.00250   0.00250   2.09061
   A16        2.09250   0.00160   0.00000   0.00121   0.00121   2.09371
   A17        2.10389  -0.00556   0.00000  -0.00444  -0.00444   2.09945
   A18        2.08615   0.00418   0.00000   0.00342   0.00342   2.08957
   A19        2.09311   0.00139   0.00000   0.00102   0.00102   2.09413
   A20        2.08630   0.00586   0.00000   0.00573   0.00573   2.09202
   A21        2.09810  -0.00292   0.00000  -0.00286  -0.00285   2.09525
   A22        2.09865  -0.00293   0.00000  -0.00286  -0.00286   2.09579
   A23        1.93230   0.00883   0.00000   0.00804   0.00804   1.94034
   A24        1.88829  -0.00211   0.00000  -0.00169  -0.00171   1.88658
   A25        1.88831  -0.00788   0.00000  -0.00806  -0.00807   1.88024
   A26        1.93251  -0.00007   0.00000   0.00062   0.00062   1.93313
   A27        1.93257   0.00095   0.00000   0.00129   0.00131   1.93388
   A28        1.88832  -0.00017   0.00000  -0.00065  -0.00067   1.88766
   A29        1.93271   0.00014   0.00000   0.00012   0.00012   1.93283
   A30        1.93220   0.00149   0.00000   0.00146   0.00146   1.93367
   A31        1.93222   0.00180   0.00000   0.00178   0.00178   1.93400
   A32        1.88840  -0.00103   0.00000  -0.00104  -0.00104   1.88736
   A33        1.88837  -0.00103   0.00000  -0.00101  -0.00101   1.88736
   A34        1.88842  -0.00153   0.00000  -0.00147  -0.00147   1.88695
    D1       -1.49977  -0.00522   0.00000  -0.00635  -0.00629  -1.50605
    D2        1.47256   0.00760   0.00000   0.00934   0.00927   1.48184
    D3       -0.64529   0.00722   0.00000   0.00937   0.00940  -0.63589
    D4       -2.76586   0.00321   0.00000   0.00473   0.00476  -2.76110
    D5        1.47537   0.00876   0.00000   0.01073   0.01073   1.48610
    D6        2.67141  -0.00388   0.00000  -0.00500  -0.00502   2.66640
    D7        0.55084  -0.00789   0.00000  -0.00964  -0.00966   0.54119
    D8       -1.49112  -0.00234   0.00000  -0.00364  -0.00368  -1.49480
    D9       -1.49899  -0.00082   0.00000  -0.00104  -0.00103  -1.50002
   D10        1.65863  -0.00010   0.00000  -0.00009  -0.00010   1.65853
   D11        3.13398   0.00139   0.00000   0.00169   0.00168   3.13566
   D12       -0.01806   0.00173   0.00000   0.00216   0.00216  -0.01590
   D13       -0.02358   0.00041   0.00000   0.00053   0.00053  -0.02305
   D14        3.10756   0.00075   0.00000   0.00100   0.00100   3.10857
   D15       -3.13294  -0.00145   0.00000  -0.00175  -0.00175  -3.13469
   D16        0.02518  -0.00192   0.00000  -0.00241  -0.00242   0.02276
   D17        0.02441  -0.00045   0.00000  -0.00058  -0.00058   0.02383
   D18       -3.10066  -0.00091   0.00000  -0.00124  -0.00124  -3.10190
   D19        0.00623  -0.00016   0.00000  -0.00016  -0.00015   0.00608
   D20        3.13817   0.00015   0.00000   0.00022   0.00022   3.13839
   D21       -3.12462  -0.00067   0.00000  -0.00078  -0.00078  -3.12540
   D22        0.00732  -0.00036   0.00000  -0.00041  -0.00040   0.00692
   D23       -0.00792   0.00027   0.00000   0.00028   0.00028  -0.00764
   D24       -3.13971  -0.00008   0.00000  -0.00012  -0.00012  -3.13983
   D25        3.11654   0.00105   0.00000   0.00122   0.00122   3.11776
   D26       -0.01524   0.00071   0.00000   0.00082   0.00081  -0.01443
   D27        0.01043  -0.00038   0.00000  -0.00044  -0.00043   0.01000
   D28        3.13397   0.00032   0.00000   0.00039   0.00039   3.13436
   D29       -3.12148  -0.00071   0.00000  -0.00082  -0.00082  -3.12230
   D30        0.00205  -0.00000   0.00000   0.00000   0.00000   0.00206
   D31       -0.00959   0.00034   0.00000   0.00038   0.00038  -0.00921
   D32       -3.13312  -0.00036   0.00000  -0.00044  -0.00044  -3.13356
   D33        3.12216   0.00070   0.00000   0.00080   0.00080   3.12295
   D34       -0.00137  -0.00000   0.00000  -0.00002  -0.00002  -0.00140
   D35        3.14154  -0.00223   0.00000  -0.00257  -0.00257   3.13896
   D36       -1.04715  -0.00245   0.00000  -0.00283  -0.00283  -1.04999
   D37        1.04706  -0.00221   0.00000  -0.00256  -0.00256   1.04450
   D38       -1.04735   0.00087   0.00000   0.00098   0.00099  -1.04636
   D39        1.04715   0.00065   0.00000   0.00073   0.00073   1.04788
   D40        3.14136   0.00089   0.00000   0.00100   0.00101  -3.14082
   D41        1.04717   0.00124   0.00000   0.00142   0.00142   1.04859
   D42       -3.14152   0.00102   0.00000   0.00116   0.00116  -3.14036
   D43       -1.04731   0.00126   0.00000   0.00144   0.00144  -1.04587
         Item               Value     Threshold  Converged?
 Maximum Force            0.494305     0.000450     NO 
 RMS     Force            0.110565     0.000300     NO 
 Maximum Displacement     0.146697     0.001800     NO 
 RMS     Displacement     0.037301     0.001200     NO 
 Predicted change in Energy=-2.417788D-01
 Lowest energy point so far.  Saving SCF results.
 GradGradGradGradGradGradGradGradGradGradGradGradGradGradGradGradGradGrad

 Leave Link  103 at Mon Aug 19 18:12:54 2024, MaxMem=  8589934592 cpu:               1.3 elap:               0.1
 (Enter /share/apps/g16.b01_avx2/g16/l202.exe)
                          Input orientation:                          
 ---------------------------------------------------------------------
 Center     Atomic      Atomic             Coordinates (Angstroms)
 Number     Number       Type             X           Y           Z
 ---------------------------------------------------------------------
      1          8           0        2.435782    0.526573   -1.375255
      2          6           0        1.853566   -0.488574   -1.098397
      3          8           0        0.485661   -0.657239   -1.366808
      4          6           0       -0.717189   -0.410078   -0.813678
      5          6           0       -1.286849   -1.323156    0.086791
      6          6           0       -1.405313    0.761007   -1.162753
      7          6           0       -2.532556   -1.047161    0.656680
      8          6           0       -2.650793    1.029049   -0.586701
      9          6           0       -3.214056    0.130752    0.326538
     10          9           0       -0.724087   -2.296262    0.338518
     11          9           0       -0.937944    1.478366   -1.933842
     12          9           0       -3.004168   -1.798173    1.394919
     13          9           0       -3.218924    1.991268   -0.874225
     14          9           0       -4.243316    0.351178    0.792637
     15          6           0        2.408055   -1.632600   -0.245087
     16          6           0        3.878329   -1.833901   -0.495031
     17          1           0        1.837596   -2.553144   -0.489848
     18          1           0        2.219659   -1.381674    0.821001
     19          1           0        4.273475   -2.663033    0.129104
     20          1           0        4.066513   -2.083436   -1.560860
     21          1           0        4.449849   -0.913819   -0.249703
 ---------------------------------------------------------------------
                    Distance matrix (angstroms):
                    1          2          3          4          5
     1  O    0.000000
     2  C    1.202559   0.000000
     3  O    2.281326   1.404157   0.000000
     4  C    3.336751   2.587665   1.346808   0.000000
     5  C    4.406479   3.458816   2.387088   1.403235   0.000000
     6  C    3.854105   3.490829   2.372518   1.402430   2.432926
     7  C    5.593727   4.757140   3.654611   2.421443   1.397402
     8  C    5.171803   4.780614   3.645474   2.421039   2.801214
     9  C    5.913835   5.300453   4.144425   2.797666   2.425995
    10  F    4.570579   3.460746   2.656695   2.210270   1.151957
    11  F    3.549642   3.515587   2.628495   2.206745   3.471774
    12  F    6.532332   5.615092   4.594320   3.469147   2.210435
    13  F    5.862769   5.650666   4.580521   3.468257   3.954980
    14  F    7.024305   6.438413   5.295596   3.948839   3.470203
    15  C    2.437227   1.531141   2.430059   3.403676   3.722663
    16  C    2.903028   2.504719   3.695230   4.821576   5.222877
    17  H    3.259821   2.152449   2.488221   3.350302   3.406984
    18  H    2.917474   2.148427   2.884105   3.498749   3.583028
    19  H    3.976656   3.477209   4.539658   5.556201   5.719639
    20  H    3.083161   2.766693   3.859300   5.122716   5.652546
    21  H    2.719938   2.764381   4.126566   5.222079   5.761119
                    6          7          8          9         10
     6  C    0.000000
     7  C    2.801872   0.000000
     8  C    1.398179   2.422937   0.000000
     9  C    2.426265   1.400327   1.399359   0.000000
    10  F    3.473440   2.220820   3.952963   3.477138   0.000000
    11  F    1.152222   3.953717   2.224978   3.479377   4.411029
    12  F    3.955683   1.153877   3.470572   2.215004   2.561805
    13  F    2.210424   3.470853   1.153823   2.214356   5.106650
    14  F    3.470702   2.213715   2.213190   1.151178   4.427204
    15  C    4.594915   5.056240   5.726519   5.919823   3.254437
    16  C    5.924211   6.560857   7.129819   7.405185   4.700087
    17  H    4.685388   4.762430   5.743442   5.778320   2.704515
    18  H    4.654759   4.766807   5.613778   5.661907   3.120080
    19  H    6.755855   7.015086   7.879678   7.994207   5.015377
    20  H    6.179824   7.038400   7.467178   7.840382   5.157789
    21  H    6.158054   7.042251   7.369357   7.756200   5.387650
                   11         12         13         14         15
    11  F    0.000000
    12  F    5.107410   0.000000
    13  F    2.566851   4.422103   0.000000
    14  F    4.430544   2.553025   2.552979   0.000000
    15  C    4.870905   5.657667   6.722434   7.018047   0.000000
    16  C    6.019782   7.137363   8.071350   8.508453   1.504891
    17  H    5.103118   5.250239   6.809392   6.859836   1.110286
    18  H    5.073406   5.271738   6.620325   6.691310   1.111305
[...]
 00112123,0.01843228,-0.02811377,0.02831790,-0.00368803,0.00207450,-0.0
 0250714,-0.00053638,0.00579104,-0.00086272,-0.13101695,0.25903934,0.00
 045822,0.00037431,0.00141352,-0.00239414,-0.00085260,-0.00214000,-0.00
 131509,-0.00341465,0.00252969,-0.02207033,0.04339605,-0.02484068,-0.05
 200548,0.12635782,-0.14629485,0.00643703,-0.00250557,0.00146368,0.0017
 6159,0.00369175,0.00186092,-0.00071625,-0.00311970,0.00193168,0.005466
 13,0.00124564,-0.00268503,0.07102647,-0.16760780,0.16576184,0.00056463
 ,-0.00006050,0.00034056,-0.00090624,0.00014295,-0.00040380,0.00312452,
 -0.00313212,-0.00436946,0.00849928,0.00378483,-0.00512969,-0.00412377,
 0.00548774,0.00188482,-0.11827529,-0.02602803,0.11654783,0.00240051,-0
 .00206061,-0.00263853,-0.01776480,-0.01658739,0.04827475,0.00033993,0.
 00679590,-0.00464814,0.00131265,-0.00072137,0.00014637,0.12724339,0.00
 089367,0.00016544,0.00028449,-0.00194237,0.00037869,-0.00046415,-0.003
 19584,-0.00033585,-0.00204596,-0.01753505,-0.00868734,0.03886829,0.006
 87412,0.00048065,-0.00181450,-0.02575831,-0.08569742,0.08841954,-0.001
 61027,0.00058490,-0.00268689,0.00698199,0.00811458,-0.00643889,0.00504
 278,-0.00210635,0.00358052,-0.00014852,-0.00155054,0.00301053,0.035902
 83,0.08595806,-0.00090973,-0.00065820,-0.00101275,0.00229476,0.0006061
 1,0.00257884,-0.00555878,-0.00352818,0.00191603,0.02425587,0.01619073,
 -0.03692531,0.00041133,0.00000155,0.00494210,0.11590750,0.08935385,-0.
 26989082,-0.00339894,-0.00220534,0.00340875,0.01788426,0.01793647,-0.0
 3224352,-0.00211674,0.00161219,0.00484704,-0.00056111,0.00354786,-0.00
 338897,-0.15344420,-0.11766075,0.32974348,-0.00082583,-0.00063519,-0.0
 0086532,0.00300249,0.00079191,0.00180447,-0.00409737,-0.00025602,0.001
 86202,0.00016301,0.00656033,-0.00351234,-0.01630092,-0.01650880,0.0468
 2702,0.00184825,-0.00160820,-0.00273459,-0.11769726,-0.02527645,0.1182
 9505,-0.00403781,0.00537758,0.00165987,0.00585902,0.00481628,-0.003978
 30,0.00170006,-0.00286144,-0.00386784,-0.00165418,-0.00114810,0.004153
 56,0.12599858,-0.00026683,-0.00008359,-0.00027708,0.00091227,0.0000749
 5,0.00037978,-0.00060953,0.00096603,-0.00053739,0.00488392,-0.00209797
 ,0.00360979,0.00726776,0.00807748,-0.00731798,-0.00171113,0.00055134,-
 0.00272369,-0.02529951,-0.08378604,0.08912214,0.00671078,0.00041689,-0
 .00176035,-0.01918509,-0.00666508,0.03903248,-0.00443617,0.00244489,-0
 .00572160,-0.00108897,-0.00051408,0.00302731,0.03612874,0.08207190,0.0
 0128433,0.00089569,0.00105936,-0.00397282,-0.00105442,-0.00230068,0.00
 537113,-0.00012307,-0.00057213,-0.00169992,0.00178183,0.00369527,0.015
 89753,0.01714689,-0.03097539,-0.00278434,-0.00273109,0.00349751,0.1182
 0750,0.08912120,-0.27326910,0.00002933,-0.00044107,0.00506076,0.027181
 78,0.01420714,-0.03842338,-0.00176169,-0.00729751,0.00581030,0.0041356
 6,0.00311410,-0.00727927,-0.15501290,-0.11572181,0.33229465,-0.0007929
 2,-0.00067168,-0.00089307,0.00284489,0.00123824,0.00176211,-0.00401376
 ,0.00213378,-0.00151782,-0.00023821,-0.00174263,0.00699666,0.00191786,
 -0.00300252,-0.00085443,-0.01478279,0.04026370,-0.02842577,-0.00418687
 ,0.00331754,0.00470274,-0.11179279,0.10241290,-0.05357021,0.00663095,-
 0.00385354,0.00670926,-0.00146755,0.00351251,-0.00208438,0.00178499,-0
 .00420143,-0.00194517,0.00132496,-0.00010495,-0.00057443,0.11820635,0.
 00101047,0.00078700,0.00107399,-0.00359407,-0.00125684,-0.00223100,0.0
 0512455,-0.00143281,0.00144527,-0.00028605,0.00475001,-0.00000375,-0.0
 0306708,0.00184677,-0.00319102,0.01651097,-0.02635368,0.02754404,0.002
 03644,0.00395536,-0.00157427,0.10228805,-0.21621448,0.12877461,0.02010
 420,-0.02244575,0.01883067,0.00349235,-0.00528195,0.00444834,-0.002701
 83,0.00232715,-0.00741511,-0.00067627,-0.00155947,0.00361804,-0.133381
 53,0.25798833,-0.00080449,-0.00034953,-0.00043041,0.00199843,0.0002653
 3,0.00085718,-0.00204888,0.00032707,0.00045463,0.00519006,0.00174670,-
 0.00291105,-0.00074793,-0.00305950,0.00226391,0.00224024,0.00288580,0.
 00204491,0.00627466,-0.00280827,0.00168298,-0.05359476,0.12868131,-0.1
 4689769,-0.02446843,0.04377999,-0.02337797,-0.00212011,0.00441473,-0.0
 0264673,-0.00389357,-0.00571971,0.00588552,0.00019501,0.00298148,-0.00
 346116,0.07314601,-0.16825311,0.16455995,-0.00158758,-0.00091084,-0.00
 159563,0.00509037,0.00060741,0.00302284,-0.00784838,0.00338282,0.00084
 855,0.00145659,-0.00220851,-0.00150718,0.00529314,-0.00097990,0.000965
 23,0.00513050,0.00024409,-0.00119393,-0.03478718,0.01957274,0.01936047
 ,-0.03562339,0.02505408,0.01299757,-0.27366362,0.12073432,0.08811988,-
 0.00267041,0.00349143,-0.00123470,-0.00285550,-0.00028918,0.00373297,0
 .00516054,-0.00308147,-0.00694615,0.00505868,-0.00751458,-0.00109312,0
 .33263781,0.00065948,0.00057978,0.00087675,-0.00253827,-0.00055327,-0.
 00180253,0.00468517,-0.00095196,0.00001579,-0.00224770,0.00053970,-0.0
 0187428,-0.00286649,0.00183547,0.00626593,0.00183516,-0.00109438,0.005
 60703,0.04333976,-0.01376327,-0.01572289,0.00160137,0.00500582,0.00317
 764,0.12076344,-0.11203019,-0.02668748,0.00299491,-0.00240153,0.000528
 60,0.00029835,0.00098737,-0.00100566,-0.00481007,0.00011889,-0.0023446
 4,-0.00587685,0.00291121,-0.00497785,-0.15826674,0.11891059,0.00048883
 ,0.00038583,0.00066970,-0.00180002,-0.00037410,-0.00136767,0.00341961,
 -0.00079315,0.00024867,-0.00178166,-0.00186451,0.00144490,0.00300215,0
 .00442718,-0.00457253,-0.00341240,0.00736913,-0.00131537,-0.01132962,0
 .00872819,0.00891913,0.04400332,-0.02132084,-0.00902444,0.08809256,-0.
 02662053,-0.09315810,-0.00066901,0.00002714,0.00112735,0.00312679,-0.0
 0047144,-0.00216629,-0.00470072,-0.00411736,0.00472215,-0.00342232,-0.
 00314246,0.00200725,-0.11533546,0.03782201,0.09238154,0.01035331,0.003
 58974,-0.00053081,-0.15236405,0.04651880,0.04005086,-0.04445697,0.0187
 0281,0.00721704,-0.00069973,-0.00093007,-0.00313753,-0.00059199,0.0008
 6303,-0.00049683,-0.00113441,-0.00007937,0.00115571,0.00017555,0.00004
 261,-0.00008035,0.00026263,-0.00003951,-0.00008400,0.00029756,-0.00020
 779,-0.00013577,0.00027494,-0.00042494,0.00023995,0.00015767,0.0000369
 6,-0.00036951,-0.00023390,-0.00005767,0.00032537,-0.00027099,0.0003542
 8,-0.00011711,-0.00038840,0.00021275,0.00016294,0.51016995,0.01824691,
 -0.00473704,-0.03401255,0.04726574,-0.11546922,-0.01383894,0.00110274,
 0.00844955,-0.00114818,-0.00371513,0.00346341,-0.00228933,0.00019093,-
 0.00004970,-0.00026793,-0.00070951,-0.00006083,0.00072537,0.00000632,0
 .00000644,-0.00003089,0.00012024,0.00019751,-0.00015523,-0.00001979,0.
 00002562,-0.00003483,0.00018884,-0.00013967,0.00020722,0.00003561,-0.0
 0006530,-0.00001053,0.00002020,-0.00003142,-0.00004869,-0.00010134,0.0
 0007078,0.00002542,0.00002475,-0.00000944,0.00000603,0.02396436,0.5385
 9547,0.01740389,-0.03857639,-0.01336676,0.04074813,-0.01385737,-0.0990
 0046,-0.01435742,0.00344213,0.01043627,-0.00559675,-0.00116670,0.00068
 022,-0.00043075,0.00097149,-0.00053258,-0.00013013,-0.00027181,0.00067
 138,0.00011304,0.00009081,0.00000637,0.00017905,-0.00002542,0.00015031
 ,0.00010646,-0.00021112,-0.00009508,0.00005455,-0.00047678,0.00015334,
 0.00010639,0.00003707,-0.00051472,-0.00013084,0.00000688,0.00018494,-0
 .00008184,0.00013937,-0.00006145,-0.00022516,0.00016803,0.00011919,0.0
 1678348,-0.01016113,0.54925463,0.00146661,-0.00328317,-0.00337288,-0.0
 3264713,0.00048303,-0.00725282,-0.00245815,0.00184732,0.00134515,-0.00
 000866,-0.00027895,-0.00072460,-0.00008507,0.00009706,-0.00005925,-0.0
 0018366,-0.00000579,0.00016335,0.00003042,0.00002210,-0.00001580,0.000
 04142,0.00000827,0.00000337,0.00003085,-0.00002877,-0.00002229,0.00005
 190,-0.00007321,0.00004047,0.00002444,-0.00000336,-0.00006693,-0.00002
 094,-0.00000742,0.00003215,-0.00003035,0.00003979,-0.00001160,-0.00005
 756,0.00003383,0.00002621,-0.18095026,-0.02162432,-0.05144425,0.510107
 55,0.00118050,-0.00052354,0.00098752,0.01376865,0.00323777,0.00941290,
 0.00593640,-0.00152200,-0.00155968,0.00071314,0.00086964,0.00025541,0.
 00026566,-0.00046703,0.00023305,0.00017701,0.00014967,-0.00044638,-0.0
 0014357,-0.00002514,0.00009462,-0.00012317,0.00009424,-0.00008934,-0.0
 0015584,0.00010604,0.00008147,-0.00004395,0.00021230,-0.00010139,-0.00
 007615,-0.00006714,0.00025392,0.00013491,0.00002997,-0.00018874,0.0001
 1499,-0.00016518,0.00008591,0.00022994,-0.00013051,-0.00009421,-0.0236
 8955,-0.08324852,-0.01210732,-0.01577682,0.57586479,0.00193700,-0.0003
 0241,-0.00088969,0.00804606,0.00635268,0.00744009,0.00591113,-0.002629
 41,-0.00041848,0.00051652,-0.00016183,0.00113701,0.00004389,-0.0003105
 8,0.00025021,0.00042988,0.00012567,-0.00059845,-0.00013076,-0.00004619
 ,0.00015548,-0.00014391,0.00007849,-0.00003748,-0.00017487,0.00010282,
 0.00008609,-0.00003130,0.00020628,-0.00014207,-0.00009674,-0.00006252,
 0.00023337,0.00012186,0.00004227,-0.00019027,0.00015434,-0.00019978,0.
 00009241,0.00024628,-0.00013278,-0.00009818,-0.05389759,-0.01158949,-0
 .10596088,-0.03553485,-0.00414727,0.56223043,-0.00195540,0.00530753,0.
 00020653,0.00125955,-0.01138148,0.02490609,-0.00225661,0.00149486,-0.0
 0112011,0.00088141,-0.00010300,-0.00067065,0.00007691,-0.00005546,-0.0
 0000485,-0.00014006,0.00001129,0.00016132,0.00004168,0.00000011,-0.000
 06057,0.00003680,-0.00001596,-0.00001568,0.00005085,-0.00001538,-0.000
 01891,-0.00003045,0.00000899,0.00001761,0.00003695,0.00000411,-0.00002
 629,-0.00003155,-0.00001511,0.00005265,-0.00005779,0.00006787,-0.00003
 348,-0.00005690,0.00002662,0.00001784,-0.04757529,0.00018816,0.0071077
 7,0.00034492,0.00727525,-0.03029425,0.05326065,0.00234336,-0.00434027,
 0.00014859,0.00117419,0.00368269,-0.02138906,-0.00073457,-0.00008734,0
 .00052072,-0.00025699,-0.00033348,0.00029621,-0.00009137,0.00009258,-0
 .00001209,0.00004919,-0.00000054,-0.00006434,0.00000563,0.00000065,0.0
 0002173,0.00000464,-0.00001163,0.00001370,-0.00000143,-0.00001292,0.00
 000017,0.00001105,-0.00002249,-0.00000964,-0.00003307,0.00000396,-0.00
 000493,-0.00001220,0.00000498,0.00001410,0.00000671,-0.00000189,0.0000
 0065,-0.00000428,0.00000547,0.00000363,-0.00035692,-0.05316513,0.06005
 862,0.00035813,0.00065816,-0.00608589,-0.00028803,0.05951697,0.0022484
 7,-0.00121916,0.00114701,0.00048069,0.00248204,-0.01864964,-0.00163061
 ,0.00011186,0.00112780,0.00048310,-0.00076341,0.00049880,-0.00024937,0
 .00018518,0.00002367,0.00002881,0.00000069,-0.00004687,0.00002686,-0.0
 0003520,0.00001681,0.00001120,-0.00003709,0.00001575,0.00002936,-0.000
 01929,-0.00000962,0.00002383,-0.00001792,0.00000386,0.00000873,0.00001
 847,-0.00004022,-0.00004733,-0.00000063,0.00005023,-0.00001360,0.00002
 731,-0.00001602,-0.00004045,0.00002265,0.00001542,0.00633441,0.0606595
 9,-0.29612053,-0.00043662,0.00251915,-0.01098400,-0.00525979,-0.063502
 37,0.32340627,-0.00312330,-0.00017154,0.00498611,0.00908519,0.02522758
 ,-0.00597273,-0.00276631,-0.00059788,0.00057830,0.00079355,-0.00089241
 ,-0.00001014,-0.00005307,0.00019797,-0.00003709,0.00005562,-0.00001151
 ,0.00006686,0.00005733,0.00004520,-0.00005140,0.00003978,-0.00009845,0
 .00005714,0.00007069,-0.00006396,-0.00002291,-0.00000070,-0.00012304,-
 0.00000098,0.00002404,0.00003699,-0.00009364,-0.00005884,-0.00001329,0
 .00009374,-0.00003541,0.00005948,-0.00004555,-0.00011166,0.00006286,0.
 00004377,-0.06227651,-0.06014354,0.00388600,-0.00798925,-0.02931544,0.
 00192042,-0.00079574,-0.00210822,0.00009837,0.06998830,0.00287661,0.00
 081848,-0.00104936,-0.00560160,-0.02147737,0.00069236,-0.00040285,0.00
 169564,-0.00024160,0.00057194,0.00050991,-0.00053728,-0.00000688,-0.00
 005249,0.00000150,-0.00024001,0.00005926,0.00009253,-0.00000442,0.0000
 1910,-0.00002291,0.00001310,-0.00001418,-0.00005764,0.00002560,-0.0000
 0076,0.00000654,0.00005381,-0.00000561,0.00004437,0.00002177,0.0000085
 9,0.00001401,-0.00000785,-0.00001265,0.00000776,-0.00003129,0.00003307
 ,-0.00000488,-0.00003175,0.00000897,0.00000753,-0.06152923,-0.29373586
 ,0.01542193,-0.00118572,-0.00224633,-0.00001748,-0.00140637,-0.0071263
 8,0.00048907,0.06748986,0.31928289,0.00297133,0.00045845,-0.00264670,-
 0.00309071,-0.01848050,-0.00128955,-0.00125453,0.00082009,-0.00000112,
 0.00017027,0.00026874,-0.00040422,-0.00000396,-0.00006924,0.00000982,-
 0.00013074,0.00002866,0.00008550,0.00001097,0.00001183,-0.00000993,0.0
 0001494,-0.00000370,-0.00003489,0.00001233,-0.00000022,-0.00000284,-0.
 00002103,0.00002380,0.00002379,0.00001183,-0.00000048,0.00000369,-0.00
 000983,-0.00000698,0.00001055,-0.00002674,0.00002754,-0.00000651,-0.00
 001457,0.00000536,0.00000447,0.00311135,0.01494703,-0.03963169,-0.0034
 1908,-0.01410568,0.00017835,0.00622407,0.03080979,-0.00199884,-0.00320
 438,-0.01418811,0.04538589,-0.00005004,0.00030106,0.00026517,-0.001453
 05,-0.00296288,-0.00392270,-0.00305437,0.00116598,0.00052549,0.0000282
 1,-0.00028345,-0.00041964,-0.00009451,0.00022923,-0.00013687,-0.000187
 27,-0.00009153,0.00030332,0.00008082,0.00002083,-0.00008883,0.00007460
 ,-0.00006805,0.00004109,0.00011550,-0.00006344,-0.00005115,0.00001669,
 -0.00011645,0.00007622,0.00005645,0.00004912,-0.00014022,-0.00008355,-
 0.00002422,0.00012394,-0.00008606,0.00011787,-0.00005933,-0.00015898,0
 .00008398,0.00006098,-0.02095138,0.01644763,0.01410330,-0.17952401,0.1
 0454534,0.08666100,0.00111708,0.00036403,-0.00009576,0.00094576,-0.000
 29036,0.00065852,0.19728939,0.00066160,0.00031194,0.00036503,-0.001562
 81,-0.00014249,-0.00127809,-0.00041261,0.00028736,0.00012227,-0.000166
 85,0.00002253,-0.00005800,-0.00000577,0.00002942,-0.00001544,-0.000028
 43,0.00000941,0.00003657,-0.00000202,0.00000318,-0.00000251,0.00001343
 ,0.00000356,-0.00000639,0.00000233,-0.00000871,0.00000120,0.00000563,-
 0.00002095,0.00000909,0.00000258,-0.00000253,-0.00001215,-0.00000331,-
 0.00000039,0.00000524,-0.00000697,0.00000658,-0.00000144,-0.00000513,0
 .00000505,0.00000371,-0.00612780,0.00292649,0.00348776,0.10668404,-0.1
 2904700,-0.06866259,0.00040602,0.00003847,0.00013070,0.00032644,0.0005
 2751,0.00047355,-0.11430350,0.13548391,0.00076339,0.00029246,0.0006906
 9,-0.00230931,-0.00168524,-0.00197226,-0.00129683,0.00051616,0.0003820
 9,-0.00018837,-0.00007448,-0.00015384,-0.00004430,0.00009700,-0.000044
 97,-0.00007585,-0.00001576,0.00011718,0.00002881,0.00000801,-0.0000206
 0,0.00003100,-0.00001808,0.00000685,0.00003035,-0.00002342,-0.00001769
 ,0.00001353,-0.00005129,0.00002764,0.00001863,0.00001099,-0.00005449,-
 0.00002684,-0.00000734,0.00003798,-0.00002820,0.00003786,-0.00001686,-
 0.00004725,0.00002797,0.00002070,-0.01223834,0.00932288,0.00623854,0.0
 8915182,-0.06917864,-0.10317375,0.00064133,0.00041486,0.00066045,0.000
 70208,0.00001124,0.00037401,-0.09304112,0.07579993,0.10839952,0.000653
 93,0.00089745,0.00064810,0.00091068,-0.00253344,-0.00081020,-0.0000016
 9,0.00031407,0.00005664,0.00007134,0.00013021,-0.00007627,-0.00000290,
 0.00000466,-0.00001206,-0.00005587,0.00000667,0.00004078,-0.00000476,0
 .00000135,-0.00000701,0.00000783,-0.00000401,-0.00001368,0.00000997,-0
 .00000460,0.00000103,0.00000918,-0.00000442,0.00001266,0.00000940,0.00
 000486,-0.00000345,-0.00000411,-0.00000179,0.00000654,-0.00001174,0.00
 001234,-0.00000414,-0.00001076,0.00000439,0.00000322,-0.00922563,-0.02
 975359,0.00272025,-0.06187296,-0.06217396,0.00489485,0.00122001,0.0003
 8859,0.00016563,-0.00514979,-0.00027339,-0.00252300,0.00625119,0.02173
 114,-0.00315788,0.06840731,0.00036976,0.00072631,0.00075371,0.00088240
 ,-0.00055498,-0.00132645,-0.00042743,0.00015164,0.00027018,0.00002147,
 -0.00004705,-0.00005185,-0.00001323,0.00004378,-0.00002065,-0.00003201
 ,-0.00000500,0.00005235,0.00000852,0.00000394,-0.00001525,0.00001580,-
 0.00001490,0.00000276,0.00001917,-0.00001513,-0.00000426,0.00000094,-0
 .00002010,0.00001162,0.00000984,0.00000798,-0.00002643,-0.00001491,-0.
 00000325,0.00002206,-0.00001443,0.00002035,-0.00001023,-0.00002694,0.0
 0001521,0.00001047,-0.00116253,-0.00364989,0.00016651,-0.06531985,-0.3
 0050317,0.02120277,-0.00019412,0.00037152,-0.00036259,-0.00050112,0.00
 135508,-0.00066104,-0.00443591,-0.01489243,0.00221757,0.07179283,0.323
 45672,-0.00044524,0.00015714,0.00019462,0.00094122,0.00006442,0.000293
 46,-0.00021348,0.00004377,-0.00012729,0.00011997,-0.00001548,-0.000063
 79,-0.00000251,0.00002825,-0.00001650,-0.00003393,-0.00001049,0.000046
 83,0.00001142,0.00000369,-0.00002058,0.00001368,-0.00001723,0.00000500
 ,0.00002077,-0.00000952,-0.00000605,-0.00000263,-0.00001460,0.00001284
 ,0.00001299,0.00001133,-0.00002027,-0.00001342,-0.00000465,0.00002117,
 -0.00001573,0.00002061,-0.00001150,-0.00002815,0.00001374,0.00000975,-
 0.00399042,-0.01543613,0.00019410,0.00546677,0.02222454,-0.04817126,0.
 00070900,-0.00040308,0.00042149,-0.00303807,-0.00034725,-0.00041252,-0
 .00467869,-0.01420447,0.00061822,-0.00224567,-0.02215612,0.04816562,0.
 00022980,0.00023107,0.00079878,0.00120647,-0.00023242,-0.00204148,0.00
 001929,-0.00006985,0.00024217,0.00000641,-0.00010975,0.00015338,-0.000
 05432,0.00005904,-0.00000626,0.00001187,-0.00000074,-0.00000565,0.0000
 0584,-0.00000847,0.00000516,0.00000202,-0.00000876,0.00000121,0.000005
 46,-0.00000391,-0.00000033,0.00001766,-0.00001294,0.00000646,0.0000009
 3,0.00000501,-0.00000556,-0.00001064,-0.00000033,0.00001058,-0.0000014
 6,0.00000274,-0.00000193,-0.00000731,0.00000406,0.00000300,-0.00057209
 ,0.00826477,-0.03091517,-0.04627012,-0.00284335,0.00942103,-0.00542703
 ,-0.00081844,-0.00216592,0.00130033,-0.00004098,0.00051295,-0.00033246
 ,-0.00720799,0.02107337,-0.00121062,-0.00097825,0.00741212,0.05107999,
 -0.00054921,0.00010552,-0.00028037,0.00050991,0.00040634,0.00101757,-0
 .00020053,-0.00011507,-0.00014278,0.00010395,-0.00005785,-0.00002646,-
 0.00000676,0.00002311,-0.00001286,-0.00001240,-0.00001291,0.00003400,0
 .00001178,0.00000032,-0.00001587,0.00000784,-0.00001294,0.00000946,0.0
 0001684,-0.00000667,-0.00000661,-0.00000128,-0.00001042,0.00000761,0.0
 0000764,0.00000917,-0.00001673,-0.00001113,-0.00000341,0.00001697,-0.0
 0001120,0.00001543,-0.00000988,-0.00002226,0.00001101,0.00000775,0.000
 32003,0.00062674,-0.00713653,-0.00198618,-0.06327703,0.06623722,-0.001
 31590,0.00072662,-0.00068906,0.00059402,0.00035311,-0.00035889,-0.0006
 8529,0.00445908,-0.01770267,-0.00053936,-0.00644663,0.03005154,0.00376
 947,0.06320649,0.00039528,0.00062162,0.00111141,0.00107976,-0.00150039
 ,-0.00110917,-0.00040418,0.00031745,0.00016964,0.00004217,-0.00007197,
 -0.00001469,-0.00003682,0.00005887,-0.00002684,-0.00003352,-0.00000950
 ,0.00005229,0.00001551,0.00000145,-0.00001667,0.00001519,-0.00001590,0
 .00000459,0.00002313,-0.00001278,-0.00000897,0.00000844,-0.00002724,0.
 00001787,0.00000878,0.00000995,-0.00002219,-0.00001857,-0.00000526,0.0
 0002650,-0.00001739,0.00002285,-0.00001137,-0.00003206,0.00001661,0.00
 001235,-0.00030283,0.00313031,-0.01280514,0.00613167,0.06587016,-0.301
 13892,-0.00253963,-0.00083136,0.00047818,0.00004408,-0.00032234,0.0003
 6273,-0.00018473,0.00380602,-0.01211941,0.00030365,-0.00007513,-0.0011
 3335,-0.00449792,-0.07098342,0.32617116\\0.00000392,0.00000505,0.00000
 072,-0.00001371,-0.00000852,-0.00001015,0.00000471,0.00000504,0.000006
 89,0.00000949,-0.00000738,-0.00000240,0.00000460,-0.00000289,-0.000000
 64,-0.00000643,0.00000855,0.00000108,0.00000088,0.00001106,-0.00000999
 ,0.00000609,-0.00000188,-0.00000391,-0.00002022,0.00000858,0.00001369,
 -0.00000204,0.00000426,-0.00000004,-0.00000056,-0.00000232,0.00000061,
 -0.00000220,-0.00000189,0.00000996,0.00000089,0.00000213,-0.00000086,0
 .00002002,-0.00000642,-0.00000659,-0.00000032,-0.00000971,0.00001465,-
 0.00000103,0.00000007,-0.00000524,-0.00000358,0.00000252,-0.00000250,-
 0.00000041,0.00000154,-0.00000450,-0.00000053,-0.00000311,0.00000051,0
 .00000067,-0.00000392,-0.00000094,-0.00000025,-0.00000076,-0.00000036\
 \\@


 NATURE GIVES TO EVERY TIME AND SEASON SOME BEAUTY OF ITS OWN.

                                                    --DICKENS
 Job cpu time:       0 days  5 hours  9 minutes  4.9 seconds.
 Elapsed time:       0 days  0 hours 12 minutes 53.8 seconds.
 File lengths (MBytes):  RWF=    591 Int=      0 D2E=      0 Chk=     30 Scr=      1
 Normal termination of Gaussian 16 at Mon Aug 19 18:57:51 2024.
