 Entering Gaussian System, Link 0=g16
 Input=input.com
 Output=input.log
 Initial command:
 /share/apps/g16.b01_avx2/g16/l1.exe "/scratch/Gau-295337.inp" -scrdir="/scratch/"
 Entering Link 1 = /share/apps/g16.b01_avx2/g16/l1.exe PID=    295339.
  
 Copyright (c) 1988-2017, Gaussian, Inc.  All Rights Reserved.
  
 This is part of the Gaussian(R) 16 program.  It is based on
 the Gaussian(R) 09 system (copyright 2009, Gaussian, Inc.),
 the Gaussian(R) 03 system (copyright 2003, Gaussian, Inc.),
 the Gaussian(R) 98 system (copyright 1998, Gaussian, Inc.),
 the Gaussian(R) 94 system (copyright 1995, Gaussian, Inc.),
 the Gaussian 92(TM) system (copyright 1992, Gaussian, Inc.),
 the Gaussian 90(TM) system (copyright 1990, Gaussian, Inc.),
 the Gaussian 88(TM) system (copyright 1988, Gaussian, Inc.),
 the Gaussian 86(TM) system (copyright 1986, Carnegie Mellon
 University), and the Gaussian 82(TM) system (copyright 1983,
 Carnegie Mellon University). Gaussian is a federally registered
 trademark of Gaussian, Inc.
  
 This software contains proprietary and confidential information,
 including trade secrets, belonging to Gaussian, Inc.
  
 This software is provided under written license and may be
 used, copied, transmitted, or stored only in accord with that
 written license.
  
 The following legend is applicable only to US Government
 contracts under FAR:
  
                    RESTRICTED RIGHTS LEGEND
  
 Use, reproduction and disclosure by the US Government is
 subject to restrictions as set forth in subparagraphs (a)
 and (c) of the Commercial Computer Software - Restricted
 Rights clause in FAR 52.227-19.
  
 Gaussian, Inc.
 340 Quinnipiac St., Bldg. 40, Wallingford CT 06492
  
  
 ---------------------------------------------------------------
 Warning -- This program may not be used in any manner that
 competes with the business of Gaussian, Inc. or will provide
 assistance to any competitor of Gaussian, Inc.  The licensee
 of this program is prohibited from giving any competitor of
 Gaussian, Inc. access to this program.  By using this program,
 the user acknowledges that Gaussian, Inc. is engaged in the
 business of creating and licensing software in the field of
 computational chemistry and represents and warrants to the
 licensee that it is not a competitor of Gaussian, Inc. and that
 it will not use this program in any manner prohibited above.
 ---------------------------------------------------------------
  

 Cite this work as:
 Gaussian 16, Revision B.01,
 M. J. Frisch, G. W. Trucks, H. B. Schlegel, G. E. Scuseria, 
 M. A. Robb, J. R. Cheeseman, G. Scalmani, V. Barone, 
 G. A. Petersson, H. Nakatsuji, X. Li, M. Caricato, A. V. Marenich, 
 J. Bloino, B. G. Janesko, R. Gomperts, B. Mennucci, H. P. Hratchian, 
 J. V. Ortiz, A. F. Izmaylov, J. L. Sonnenberg, D. Williams-Young, 
 F. Ding, F. Lipparini, F. Egidi, J. Goings, B. Peng, A. Petrone, 
 T. Henderson, D. Ranasinghe, V. G. Zakrzewski, J. Gao, N. Rega, 
 G. Zheng, W. Liang, M. Hada, M. Ehara, K. Toyota, R. Fukuda, 
 J. Hasegawa, M. Ishida, T. Nakajima, Y. Honda, O. Kitao, H. Nakai, 
 T. Vreven, K. Throssell, J. A. Montgomery, Jr., J. E. Peralta, 
 F. Ogliaro, M. J. Bearpark, J. J. Heyd, E. N. Brothers, K. N. Kudin, 
 V. N. Staroverov, T. A. Keith, R. Kobayashi, J. Normand, 
 K. Raghavachari, A. P. Rendell, J. C. Burant, S. S. Iyengar, 
 J. Tomasi, M. Cossi, J. M. Millam, M. Klene, C. Adamo, R. Cammi, 
 J. W. Ochterski, R. L. Martin, K. Morokuma, O. Farkas, 
 J. B. Foresman, and D. J. Fox, Gaussian, Inc., Wallingford CT, 2016.
 
 ******************************************
 Gaussian 16:  ES64L-G16RevB.01 20-Dec-2017
                 2-Jul-2024 
 ******************************************
 %nproc=16
 Will use up to   16 processors via shared memory.
 %mem=60GB
 ----------------------------------------------------------------------
 #P PBE1PBE/def2TZVP opt freq EmpiricalDispersion=GD3 Int=(grid=99590) 
 scrf=(iefpcm, solvent=water)
 ----------------------------------------------------------------------
 1/18=20,19=15,26=6,38=1/1,3;
 2/9=110,12=2,17=6,18=5,40=1/2;
 3/5=44,7=101,11=2,25=1,30=1,70=2201,71=1,72=1,74=-13,75=99590,124=31/1,2,3;
 4//1;
 5/5=2,38=5,53=1/2;
 6/7=2,8=2,9=2,10=2,28=1/1;
 7//1,2,3,16;
 1/18=20,19=15,26=6/3(2);
 2/9=110/2;
 99//99;
 2/9=110/2;
 3/5=44,7=101,11=2,25=1,30=1,70=2205,71=1,72=1,74=-13,75=99590,124=31/1,2,3;
 4/5=5,16=3,69=1/1;
 5/5=2,38=5,53=1/2;
 7//1,2,3,16;
 1/18=20,19=15,26=6/3(-5);
 2/9=110/2;
 6/7=2,8=2,9=2,10=2,19=2,28=1/1;
 99/9=1/99;
 Leave Link    1 at Tue Jul  2 19:59:27 2024, MaxMem=  8053063680 cpu:               0.4 elap:               0.0
 (Enter /share/apps/g16.b01_avx2/g16/l101.exe)
 -------------
 pfp-cf3_ester
 -------------
 Symbolic Z-matrix:
 Charge =  0 Multiplicity = 1
 O                    -3.00791  -1.03336   2.0211 
 C                    -1.94147  -1.14106   2.68041 
 C                    -1.99561  -1.30795   4.21038 
 H                    -1.97523  -0.3444    4.6752 
 H                    -2.89725  -1.81601   4.48206 
 H                    -1.15196  -1.87938   4.53691 
 O                    -0.67935  -1.1085    2.00893 
 C                    -0.45933  -1.05724   0.62409 
 C                    -0.29824  -2.17109  -0.20276 
 C                    -0.85586   0.15668   0.05889 
 C                    -0.52848  -2.0551   -1.5333 
 C                    -1.07644   0.23232  -1.27619 
 C                    -0.91407  -0.86395  -2.06471 
 F                     0.08433  -3.35558   0.31986 
 F                    -1.01839   1.24764   0.83727 
 F                    -0.37406  -3.12907  -2.33658 
 F                    -1.45988   1.40363  -1.8271 
 C                    -1.17022  -0.75507  -3.57935 
 F                    -1.63333  -1.93519  -4.0434 
 F                    -0.01735  -0.44488  -4.20956 
 F                    -2.08455   0.21033  -3.81285 
 
 ITRead=  0  0  0  0  0  0  0  0  0  0  0  0  0  0  0  0  0  0  0  0
 ITRead=  0
 MicOpt= -1 -1 -1 -1 -1 -1 -1 -1 -1 -1 -1 -1 -1 -1 -1 -1 -1 -1 -1 -1
 MicOpt= -1
 NAtoms=     21 NQM=       21 NQMF=       0 NMMI=      0 NMMIF=      0
                NMic=       0 NMicF=      0.
                    Isotopes and Nuclear Properties:
 (Nuclear quadrupole moments (NQMom) in fm**2, nuclear magnetic moments (NMagM)
  in nuclear magnetons)

  Atom         1           2           3           4           5           6           7           8           9          10
 IAtWgt=          16          12          12           1           1           1          16          12          12          12
 AtmWgt=  15.9949146  12.0000000  12.0000000   1.0078250   1.0078250   1.0078250  15.9949146  12.0000000  12.0000000  12.0000000
 NucSpn=           0           0           0           1           1           1           0           0           0           0
 AtZEff=  -0.0000000  -0.0000000  -0.0000000  -0.0000000  -0.0000000  -0.0000000  -0.0000000  -0.0000000  -0.0000000  -0.0000000
 NQMom=    0.0000000   0.0000000   0.0000000   0.0000000   0.0000000   0.0000000   0.0000000   0.0000000   0.0000000   0.0000000
 NMagM=    0.0000000   0.0000000   0.0000000   2.7928460   2.7928460   2.7928460   0.0000000   0.0000000   0.0000000   0.0000000
 AtZNuc=   8.0000000   6.0000000   6.0000000   1.0000000   1.0000000   1.0000000   8.0000000   6.0000000   6.0000000   6.0000000

  Atom        11          12          13          14          15          16          17          18          19          20
 IAtWgt=          12          12          12          19          19          19          19          12          19          19
 AtmWgt=  12.0000000  12.0000000  12.0000000  18.9984032  18.9984032  18.9984032  18.9984032  12.0000000  18.9984032  18.9984032
 NucSpn=           0           0           0           1           1           1           1           0           1           1
 AtZEff=  -0.0000000  -0.0000000  -0.0000000  -0.0000000  -0.0000000  -0.0000000  -0.0000000  -0.0000000  -0.0000000  -0.0000000
 NQMom=    0.0000000   0.0000000   0.0000000   0.0000000   0.0000000   0.0000000   0.0000000   0.0000000   0.0000000   0.0000000
 NMagM=    0.0000000   0.0000000   0.0000000   2.6288670   2.6288670   2.6288670   2.6288670   0.0000000   2.6288670   2.6288670
 AtZNuc=   6.0000000   6.0000000   6.0000000   9.0000000   9.0000000   9.0000000   9.0000000   6.0000000   9.0000000   9.0000000

  Atom        21
 IAtWgt=          19
 AtmWgt=  18.9984032
 NucSpn=           1
 AtZEff=  -0.0000000
 NQMom=    0.0000000
 NMagM=    2.6288670
 AtZNuc=   9.0000000
 Leave Link  101 at Tue Jul  2 19:59:27 2024, MaxMem=  8053063680 cpu:               5.0 elap:               0.3
 (Enter /share/apps/g16.b01_avx2/g16/l103.exe)

 GradGradGradGradGradGradGradGradGradGradGradGradGradGradGradGradGradGrad
 Berny optimization.
 Initialization pass.
                           ----------------------------
                           !    Initial Parameters    !
                           ! (Angstroms and Degrees)  !
 --------------------------                            --------------------------
 ! Name  Definition              Value          Derivative Info.                !
 --------------------------------------------------------------------------------
 ! R1    R(1,2)                  1.2584         estimate D2E/DX2                !
 ! R2    R(2,3)                  1.54           estimate D2E/DX2                !
 ! R3    R(2,7)                  1.43           estimate D2E/DX2                !
 ! R4    R(3,4)                  1.07           estimate D2E/DX2                !
 ! R5    R(3,5)                  1.07           estimate D2E/DX2                !
 ! R6    R(3,6)                  1.07           estimate D2E/DX2                !
 ! R7    R(7,8)                  1.4032         estimate D2E/DX2                !
 ! R8    R(8,9)                  1.3965         estimate D2E/DX2                !
 ! R9    R(8,10)                 1.3965         estimate D2E/DX2                !
 ! R10   R(9,11)                 1.3553         estimate D2E/DX2                !
 ! R11   R(9,14)                 1.35           estimate D2E/DX2                !
 ! R12   R(10,12)                1.3553         estimate D2E/DX2                !
 ! R13   R(10,15)                1.35           estimate D2E/DX2                !
 ! R14   R(11,13)                1.3601         estimate D2E/DX2                !
 ! R15   R(11,16)                1.35           estimate D2E/DX2                !
 ! R16   R(12,13)                1.3601         estimate D2E/DX2                !
 ! R17   R(12,17)                1.35           estimate D2E/DX2                !
 ! R18   R(13,18)                1.54           estimate D2E/DX2                !
 ! R19   R(18,19)                1.35           estimate D2E/DX2                !
 ! R20   R(18,20)                1.35           estimate D2E/DX2                !
 ! R21   R(18,21)                1.35           estimate D2E/DX2                !
 ! A1    A(1,2,3)              120.0            estimate D2E/DX2                !
 ! A2    A(1,2,7)              120.0            estimate D2E/DX2                !
 ! A3    A(3,2,7)              120.0            estimate D2E/DX2                !
 ! A4    A(2,3,4)              109.4712         estimate D2E/DX2                !
 ! A5    A(2,3,5)              109.4712         estimate D2E/DX2                !
 ! A6    A(2,3,6)              109.4712         estimate D2E/DX2                !
 ! A7    A(4,3,5)              109.4712         estimate D2E/DX2                !
 ! A8    A(4,3,6)              109.4712         estimate D2E/DX2                !
 ! A9    A(5,3,6)              109.4712         estimate D2E/DX2                !
 ! A10   A(2,7,8)              127.0607         estimate D2E/DX2                !
 ! A11   A(7,8,9)              124.9807         estimate D2E/DX2                !
 ! A12   A(7,8,10)             112.7475         estimate D2E/DX2                !
 ! A13   A(9,8,10)             119.1061         estimate D2E/DX2                !
 ! A14   A(8,9,11)             119.5648         estimate D2E/DX2                !
 ! A15   A(8,9,14)             120.2176         estimate D2E/DX2                !
 ! A16   A(11,9,14)            120.2176         estimate D2E/DX2                !
 ! A17   A(8,10,12)            119.5648         estimate D2E/DX2                !
 ! A18   A(8,10,15)            120.2176         estimate D2E/DX2                !
 ! A19   A(12,10,15)           120.2176         estimate D2E/DX2                !
 ! A20   A(9,11,13)            120.4431         estimate D2E/DX2                !
 ! A21   A(9,11,16)            119.7784         estimate D2E/DX2                !
 ! A22   A(13,11,16)           119.7784         estimate D2E/DX2                !
 ! A23   A(10,12,13)           120.4431         estimate D2E/DX2                !
 ! A24   A(10,12,17)           119.7784         estimate D2E/DX2                !
 ! A25   A(13,12,17)           119.7784         estimate D2E/DX2                !
 ! A26   A(11,13,12)           120.8781         estimate D2E/DX2                !
 ! A27   A(11,13,18)           119.561          estimate D2E/DX2                !
 ! A28   A(12,13,18)           119.561          estimate D2E/DX2                !
 ! A29   A(13,18,19)           109.4712         estimate D2E/DX2                !
 ! A30   A(13,18,20)           109.4712         estimate D2E/DX2                !
 ! A31   A(13,18,21)           109.4712         estimate D2E/DX2                !
 ! A32   A(19,18,20)           109.4713         estimate D2E/DX2                !
 ! A33   A(19,18,21)           109.4712         estimate D2E/DX2                !
 ! A34   A(20,18,21)           109.4712         estimate D2E/DX2                !
 ! D1    D(1,2,3,4)            -90.0            estimate D2E/DX2                !
 ! D2    D(1,2,3,5)             30.0            estimate D2E/DX2                !
 ! D3    D(1,2,3,6)            150.0            estimate D2E/DX2                !
 ! D4    D(7,2,3,4)             90.0            estimate D2E/DX2                !
 ! D5    D(7,2,3,5)           -150.0            estimate D2E/DX2                !
 ! D6    D(7,2,3,6)            -30.0            estimate D2E/DX2                !
 ! D7    D(1,2,7,8)             -4.7932         estimate D2E/DX2                !
 ! D8    D(3,2,7,8)            175.2068         estimate D2E/DX2                !
 ! D9    D(2,7,8,9)            -91.4161         estimate D2E/DX2                !
 ! D10   D(2,7,8,10)            68.1582         estimate D2E/DX2                !
 ! D11   D(7,8,9,11)           158.3852         estimate D2E/DX2                !
 ! D12   D(7,8,9,14)           -21.6148         estimate D2E/DX2                !
 ! D13   D(10,8,9,11)            0.0            estimate D2E/DX2                !
 ! D14   D(10,8,9,14)          180.0            estimate D2E/DX2                !
 ! D15   D(7,8,10,12)         -160.8967         estimate D2E/DX2                !
 ! D16   D(7,8,10,15)           19.1035         estimate D2E/DX2                !
 ! D17   D(9,8,10,12)           -0.0001         estimate D2E/DX2                !
 ! D18   D(9,8,10,15)         -179.9998         estimate D2E/DX2                !
 ! D19   D(8,9,11,13)            0.0002         estimate D2E/DX2                !
 ! D20   D(8,9,11,16)         -179.9999         estimate D2E/DX2                !
 ! D21   D(14,9,11,13)        -179.9998         estimate D2E/DX2                !
 ! D22   D(14,9,11,16)           0.0001         estimate D2E/DX2                !
 ! D23   D(8,10,12,13)           0.0            estimate D2E/DX2                !
 ! D24   D(8,10,12,17)        -179.9999         estimate D2E/DX2                !
 ! D25   D(15,10,12,13)        179.9997         estimate D2E/DX2                !
 ! D26   D(15,10,12,17)         -0.0002         estimate D2E/DX2                !
 ! D27   D(9,11,13,12)          -0.0003         estimate D2E/DX2                !
 ! D28   D(9,11,13,18)         179.9998         estimate D2E/DX2                !
 ! D29   D(16,11,13,12)        179.9998         estimate D2E/DX2                !
 ! D30   D(16,11,13,18)         -0.0002         estimate D2E/DX2                !
 ! D31   D(10,12,13,11)          0.0002         estimate D2E/DX2                !
 ! D32   D(10,12,13,18)       -179.9998         estimate D2E/DX2                !
 ! D33   D(17,12,13,11)       -179.9999         estimate D2E/DX2                !
 ! D34   D(17,12,13,18)          0.0001         estimate D2E/DX2                !
 ! D35   D(11,13,18,19)         31.6029         estimate D2E/DX2                !
 ! D36   D(11,13,18,20)        -88.3971         estimate D2E/DX2                !
 ! D37   D(11,13,18,21)        151.6029         estimate D2E/DX2                !
 ! D38   D(12,13,18,19)       -148.3971         estimate D2E/DX2                !
 ! D39   D(12,13,18,20)         91.6029         estimate D2E/DX2                !
 ! D40   D(12,13,18,21)        -28.3971         estimate D2E/DX2                !
 --------------------------------------------------------------------------------
 Trust Radius=3.00D-01 FncErr=5.00D-06 GrdErr=5.00D-06 EigMax=2.50D+02 EigMin=1.00D-04
 Number of steps in this run=    105 maximum allowed number of steps=    126.
 GradGradGradGradGradGradGradGradGradGradGradGradGradGradGradGradGradGrad

 Leave Link  103 at Tue Jul  2 19:59:27 2024, MaxMem=  8053063680 cpu:               0.1 elap:               0.0
 (Enter /share/apps/g16.b01_avx2/g16/l202.exe)
                          Input orientation:                          
 ---------------------------------------------------------------------
 Center     Atomic      Atomic             Coordinates (Angstroms)
 Number     Number       Type             X           Y           Z
 ---------------------------------------------------------------------
      1          8           0       -3.007908   -1.033360    2.021097
      2          6           0       -1.941475   -1.141064    2.680406
      3          6           0       -1.995611   -1.307945    4.210380
      4          1           0       -1.975233   -0.344398    4.675204
      5          1           0       -2.897252   -1.816011    4.482064
      6          1           0       -1.151960   -1.879377    4.536907
      7          8           0       -0.679349   -1.108495    2.008932
      8          6           0       -0.459335   -1.057239    0.624085
      9          6           0       -0.298236   -2.171088   -0.202756
     10          6           0       -0.855861    0.156679    0.058886
     11          6           0       -0.528477   -2.055105   -1.533297
     12          6           0       -1.076436    0.232318   -1.276190
     13          6           0       -0.914070   -0.863950   -2.064707
     14          9           0        0.084326   -3.355577    0.319864
     15          9           0       -1.018389    1.247644    0.837269
     16          9           0       -0.374060   -3.129067   -2.336579
     17          9           0       -1.459879    1.403628   -1.827101
     18          6           0       -1.170225   -0.755067   -3.579345
     19          9           0       -1.633325   -1.935191   -4.043397
     20          9           0       -0.017349   -0.444885   -4.209556
     21          9           0       -2.084551    0.210326   -3.812850
 ---------------------------------------------------------------------
                    Distance matrix (angstroms):
                    1          2          3          4          5
     1  O    0.000000
     2  C    1.258400   0.000000
     3  C    2.427572   1.540000   0.000000
     4  H    2.930080   2.148263   1.070000   0.000000
     5  H    2.584792   2.148263   1.070000   1.747303   0.000000
     6  H    3.238764   2.148263   1.070000   1.747303   1.747303
     7  O    2.329803   1.430000   2.572683   3.061399   3.396477
     8  C    2.906448   2.536182   3.909541   4.383794   4.626356
     9  C    3.685413   3.474738   4.806440   5.472075   5.369218
    10  C    3.146072   3.120106   4.547423   4.776448   5.255786
    11  C    4.452556   4.537326   5.974994   6.600387   6.469376
    12  C    4.025496   4.276578   5.772326   6.046447   6.377186
    13  C    4.594198   4.862968   6.383070   6.842690   6.906493
    14  F    4.224784   3.818389   4.863645   5.681370   5.346398
    15  F    3.250017   3.155182   4.343257   4.263788   5.118656
    16  F    5.506222   5.619527   6.986314   7.712537   7.388132
    17  F    4.810814   5.198560   6.640092   6.752863   7.227564
    18  C    5.900803   6.318885   7.852819   8.303871   8.312313
    19  F    6.283380   6.777545   8.285501   8.869133   8.619466
    20  F    6.936193   7.187385   8.692164   9.098481   9.258406
    21  F    6.036081   6.633936   8.166106   8.506864   8.577419
                    6          7          8          9         10
     6  H    0.000000
     7  O    2.684824   0.000000
     8  C    4.057809   1.403151   0.000000
     9  C    4.824764   2.483126   1.396524   0.000000
    10  C    4.928069   2.331201   1.396524   2.407882   0.000000
    11  C    6.104670   3.669635   2.377986   1.355287   2.744852
    12  C    6.185229   3.570362   2.377986   2.744852   1.355287
    13  C    6.683487   4.087717   2.733816   2.356846   2.356846
    14  F    4.635841   2.912992   2.381276   1.350000   3.645271
    15  F    4.845970   2.653137   2.381276   3.645271   1.350000
    16  F    7.029343   4.802018   3.614592   2.340229   4.094692
    17  F    7.167534   4.651359   3.614592   4.094692   2.340229
    18  C    8.193776   5.620918   4.273816   3.763886   3.763886
    19  F    8.593977   6.182571   4.892284   4.072914   4.670021
    20  F    8.935643   6.288737   4.892281   4.371855   4.391421
    21  F    8.657657   6.132457   4.892284   4.679191   4.062377
                   11         12         13         14         15
    11  C    0.000000
    12  C    2.366150   0.000000
    13  C    1.360120   1.360120   0.000000
    14  F    2.345413   4.094844   3.590429   0.000000
    15  F    4.094844   2.345413   3.590429   4.761652   0.000000
    16  F    1.350000   3.593976   2.344414   2.705201   5.444636
    17  F    3.593976   1.350000   2.344414   5.444636   2.705201
    18  C    2.507639   2.507639   1.540000   4.851844   4.851844
    19  F    2.745117   3.558884   2.362223   4.899578   5.859137
    20  F    3.164873   3.191380   2.362223   5.384990   5.416380
    21  F    3.570701   2.729730   2.362224   5.873586   4.882247
                   16         17         18         19         20
    16  F    0.000000
    17  F    4.688698   0.000000
    18  C    2.795393   2.795393   0.000000
    19  F    2.433991   4.011205   1.350000   0.000000
    20  F    3.292434   3.342750   1.350000   2.204541   0.000000
    21  F    4.031960   2.399455   1.350000   2.204541   2.204541
                   21
    21  F    0.000000
 Stoichiometry    C9H3F7O2
 Framework group  C1[X(C9H3F7O2)]
 Deg. of freedom    57
 Full point group                 C1      NOp   1
 Largest Abelian subgroup         C1      NOp   1
 Largest concise Abelian subgroup C1      NOp   1
                         Standard orientation:                         
 ---------------------------------------------------------------------
 Center     Atomic      Atomic             Coordinates (Angstroms)
 Number     Number       Type             X           Y           Z
 ---------------------------------------------------------------------
      1          8           0       -2.886497   -0.510394    1.582081
      2          6           0       -3.453678   -0.107327    0.533551
      3          6           0       -4.988074    0.015224    0.486541
      4          1           0       -5.409292   -0.907430    0.145683
      5          1           0       -5.358401    0.236144    1.465802
      6          1           0       -5.262635    0.802108   -0.184526
      7          8           0       -2.673405    0.236906   -0.614307
      8          6           0       -1.273673    0.271067   -0.706053
      9          6           0       -0.482416    1.395247   -0.460270
     10          6           0       -0.695945   -0.997630   -0.622881
     11          6           0        0.826468    1.236144   -0.146722
     12          6           0        0.616639   -1.115261   -0.306515
     13          6           0        1.370587   -0.008074   -0.070664
     14          9           0       -1.017778    2.632331   -0.534514
     15          9           0       -1.440038   -2.099648   -0.856083
     16          9           0        1.595331    2.319887    0.091709
     17          9           0        1.179541   -2.339592   -0.224934
     18          6           0        2.860140   -0.165317    0.287257
     19          9           0        3.232880    0.836196    1.112203
     20          9           0        3.601187   -0.118999   -0.840220
     21          9           0        3.052128   -1.350992    0.903548
 ---------------------------------------------------------------------
 Rotational constants (GHZ):           0.7331503           0.2756321           0.2259214
 Leave Link  202 at Tue Jul  2 19:59:27 2024, MaxMem=  8053063680 cpu:               0.0 elap:               0.0
 (Enter /share/apps/g16.b01_avx2/g16/l301.exe)
 Standard basis: def2TZVP (5D, 7F)
 Ernie: Thresh=  0.10000D-02 Tol=  0.10000D-05 Strict=F.
 There are   666 symmetry adapted cartesian basis functions of A   symmetry.
 There are   576 symmetry adapted basis functions of A   symmetry.
   576 basis functions,   942 primitive gaussians,   666 cartesian basis functions
    68 alpha electrons       68 beta electrons
       nuclear repulsion energy      1455.4126504753 Hartrees.
 IExCor= 1009 DFT=T Ex+Corr=PBE1PBE ExCW=0 ScaHFX=  0.250000
 ScaDFX=  0.750000  0.750000  1.000000  1.000000 ScalE2=  1.000000  1.000000
 IRadAn=  99590 IRanWt=     -1 IRanGd=            0 ICorTp=0 IEmpDi=131
 NAtoms=   21 NActive=   21 NUniq=   21 SFac= 1.00D+00 NAtFMM=   60 NAOKFM=F Big=F
 Integral buffers will be    131072 words long.
 Raffenetti 2 integral format.
 Two-electron integral symmetry is turned on.
 R6Disp:  Grimme-D3 Dispersion energy=       -0.0114869640 Hartrees.
 Nuclear repulsion after empirical dispersion term =     1455.4011635113 Hartrees.
 ------------------------------------------------------------------------------
 Polarizable Continuum Model (PCM)
 =================================
 Model                : PCM.
 Atomic radii         : UFF (Universal Force Field).
 Polarization charges : Total charges.
 Charge compensation  : None.
 Solution method      : On-the-fly selection.
 Cavity type          : Scaled VdW (van der Waals Surface) (Alpha=1.100).
 Cavity algorithm     : GePol (No added spheres)
                        Default sphere list used, NSphG=   21.
                        Lebedev-Laikov grids with approx.  5.0 points / Ang**2.
                        Smoothing algorithm: York/Karplus (Gamma=1.0000).
                        Polarization charges: spherical gaussians, with
                                              point-specific exponents (IZeta= 3).
                        Self-potential: point-specific (ISelfS= 7).
                        Self-field    : sphere-specific E.n sum rule (ISelfD= 2).
 1st derivatives      : Analytical E(r).r(x)/FMM algorithm (CHGder, D1EAlg=3).
                        Cavity 1st derivative terms included.
 Solvent              : Water, Eps=  78.355300 Eps(inf)=   1.777849
 ------------------------------------------------------------------------------
 GePol: Number of generator spheres                  =      21
 GePol: Total number of spheres                      =      21
 GePol: Number of exposed spheres                    =      21 (100.00%)
 GePol: Number of points                             =    2150
 GePol: Average weight of points                     =       0.12
 GePol: Minimum weight of points                     =   0.39D-08
 GePol: Maximum weight of points                     =    0.20577
 GePol: Number of points with low weight             =      88
 GePol: Fraction of low-weight points (<1% of avg)   =       4.09%
 GePol: Cavity surface area                          =    266.680 Ang**2
 GePol: Cavity volume                                =    272.957 Ang**3
 Leave Link  301 at Tue Jul  2 19:59:27 2024, MaxMem=  8053063680 cpu:               0.4 elap:               0.0
 (Enter /share/apps/g16.b01_avx2/g16/l302.exe)
 NPDir=0 NMtPBC=     1 NCelOv=     1 NCel=       1 NClECP=     1 NCelD=      1
         NCelK=      1 NCelE2=     1 NClLst=     1 CellRange=     0.0.
 One-electron integrals computed using PRISM.
 One-electron integral symmetry used in STVInt
   1 Symmetry operations used in ECPInt.
 ECPInt:  NShTT=   22155 NPrTT=   72036 LenC2=   19134 LenP2D=   44008.
 LDataN:  DoStor=T MaxTD1= 6 Len=  172
 NBasis=   576 RedAO= T EigKep=  1.22D-05  NBF=   576
 NBsUse=   576 1.00D-06 EigRej= -1.00D+00 NBFU=   576
 Precomputing XC quadrature grid using
 IXCGrd= 4 IRadAn=       99590 IRanWt=          -1 IRanGd=           0 AccXCQ= 0.00D+00.
 Generated NRdTot=       0 NPtTot=           0 NUsed=           0 NTot=          32
 NSgBfM=   654   654   654   654   654 MxSgAt=    21 MxSgA2=    21.
 Leave Link  302 at Tue Jul  2 19:59:27 2024, MaxMem=  8053063680 cpu:               3.9 elap:               0.2
 (Enter /share/apps/g16.b01_avx2/g16/l303.exe)
 DipDrv:  MaxL=1.
 Leave Link  303 at Tue Jul  2 19:59:27 2024, MaxMem=  8053063680 cpu:               0.7 elap:               0.0
 (Enter /share/apps/g16.b01_avx2/g16/l401.exe)
 ExpMin= 9.52D-02 ExpMax= 3.55D+04 ExpMxC= 1.21D+03 IAcc=4 IRadAn=    199590 AccDes= 0.00D+00
 Harris functional with IExCor= 1009 and IRadAn=  199590 diagonalized for initial guess.
 HarFok:  IExCor= 1009 AccDes= 0.00D+00 IRadAn=    199590 IDoV= 1 UseB2=F ITyADJ=14
 ICtDFT=  3500011 ScaDFX=  1.000000  1.000000  1.000000  1.000000
 FoFCou: FMM=F IPFlag=           0 FMFlag=      100000 FMFlg1=           0
         NFxFlg=           0 DoJE=T BraDBF=F KetDBF=T FulRan=T
         wScrn=  0.000000 ICntrl=       500 IOpCl=  0 I1Cent=   200000004 NGrid=           0
         NMat0=    1 NMatS0=      1 NMatT0=    0 NMatD0=    1 NMtDS0=    0 NMtDT0=    0
 Petite list used in FoFCou.
 Harris En= -1193.42748806825    
 JPrj=0 DoOrth=F DoCkMO=F.
 Leave Link  401 at Tue Jul  2 19:59:29 2024, MaxMem=  8053063680 cpu:              30.0 elap:               1.9
 (Enter /share/apps/g16.b01_avx2/g16/l502.exe)
 Integral symmetry usage will be decided dynamically.
 Closed shell SCF:
 Using DIIS extrapolation, IDIIS=  1040.
 NGot=  8053063680 LenX=  8052160313 LenY=  8051716091
 Requested convergence on RMS density matrix=1.00D-08 within 128 cycles.
 Requested convergence on MAX density matrix=1.00D-06.
 Requested convergence on             energy=1.00D-06.
 No special actions if energy rises.
 Fock matrices will be formed incrementally for  20 cycles.

 Cycle   1  Pass 1  IDiag  1:
 FoFJK:  IHMeth= 1 ICntrl=       0 DoSepK=F KAlg= 0 I1Cent=           0 FoldK=F
 IRaf= 800000000 NMat=       1 IRICut=       1 DoRegI=T DoRafI=F ISym2E= 0 IDoP0=0 IntGTp=1.
 FoFCou: FMM=F IPFlag=           0 FMFlag=      100000 FMFlg1=           0
         NFxFlg=           0 DoJE=F BraDBF=F KetDBF=F FulRan=T
         wScrn=  0.000000 ICntrl=         0 IOpCl=  0 I1Cent=           0 NGrid=           0
         NMat0=    1 NMatS0=      1 NMatT0=    0 NMatD0=    1 NMtDS0=    0 NMtDT0=    0
 Symmetry not used in FoFCou.
 Inv3:  Mode=1 IEnd=    13867500.
 Iteration    1 A*A^-1 deviation from unit magnitude is 2.66D-15 for     76.
 Iteration    1 A*A^-1 deviation from orthogonality  is 2.44D-15 for   2018   1828.
 Iteration    1 A^-1*A deviation from unit magnitude is 2.89D-15 for   1662.
 Iteration    1 A^-1*A deviation from orthogonality  is 1.77D-15 for   1801     50.
 E= -1193.10917995399    
 DIIS: error= 2.26D-02 at cycle   1 NSaved=   1.
 NSaved= 1 IEnMin= 1 EnMin= -1193.10917995399     IErMin= 1 ErrMin= 2.26D-02
 ErrMax= 2.26D-02  0.00D+00 EMaxC= 1.00D-01 BMatC= 3.70D-01 BMatP= 3.70D-01
 IDIUse=3 WtCom= 7.74D-01 WtEn= 2.26D-01
 Coeff-Com:  0.100D+01
 Coeff-En:   0.100D+01
 Coeff:      0.100D+01
 Gap=     0.220 Goal=   None    Shift=    0.000
 GapD=    0.220 DampG=1.000 DampE=0.500 DampFc=0.5000 IDamp=-1.
 Damping current iteration by 5.00D-01
 RMSDP=1.61D-03 MaxDP=1.07D-01              OVMax= 2.70D-01

 Cycle   2  Pass 1  IDiag  1:
 RMSU=  8.05D-04    CP:  9.94D-01
 E= -1193.18305442962     Delta-E=       -0.073874475620 Rises=F Damp=T
 DIIS: error= 6.50D-03 at cycle   2 NSaved=   2.
 NSaved= 2 IEnMin= 2 EnMin= -1193.18305442962     IErMin= 2 ErrMin= 6.50D-03
 ErrMax= 6.50D-03  0.00D+00 EMaxC= 1.00D-01 BMatC= 5.22D-02 BMatP= 3.70D-01
 IDIUse=3 WtCom= 9.35D-01 WtEn= 6.50D-02
 Coeff-Com:  0.156D+00 0.844D+00
 Coeff-En:   0.310D+00 0.690D+00
 Coeff:      0.166D+00 0.834D+00
 Gap=     0.270 Goal=   None    Shift=    0.000
 RMSDP=6.83D-04 MaxDP=3.75D-02 DE=-7.39D-02 OVMax= 1.64D-01

 Cycle   3  Pass 1  IDiag  1:
 RMSU=  6.64D-04    CP:  9.81D-01  8.41D-01
 E= -1193.31162089192     Delta-E=       -0.128566462308 Rises=F Damp=F
 DIIS: error= 1.00D-02 at cycle   3 NSaved=   3.
 NSaved= 3 IEnMin= 3 EnMin= -1193.31162089192     IErMin= 2 ErrMin= 6.50D-03
 ErrMax= 1.00D-02  0.00D+00 EMaxC= 1.00D-01 BMatC= 5.54D-02 BMatP= 5.22D-02
 IDIUse=3 WtCom= 9.00D-01 WtEn= 1.00D-01
 Coeff-Com: -0.115D-02 0.509D+00 0.492D+00
 Coeff-En:   0.000D+00 0.000D+00 0.100D+01
 Coeff:     -0.103D-02 0.458D+00 0.543D+00
 Gap=     0.223 Goal=   None    Shift=    0.000
 RMSDP=4.08D-04 MaxDP=3.51D-02 DE=-1.29D-01 OVMax= 1.08D-01

 Cycle   4  Pass 1  IDiag  1:
 RMSU=  3.48D-04    CP:  9.77D-01  9.48D-01  7.09D-01
 E= -1193.34530692823     Delta-E=       -0.033686036303 Rises=F Damp=F
 DIIS: error= 3.79D-03 at cycle   4 NSaved=   4.
 NSaved= 4 IEnMin= 4 EnMin= -1193.34530692823     IErMin= 4 ErrMin= 3.79D-03
 ErrMax= 3.79D-03  0.00D+00 EMaxC= 1.00D-01 BMatC= 1.13D-02 BMatP= 5.22D-02
 IDIUse=3 WtCom= 9.62D-01 WtEn= 3.79D-02
 Coeff-Com: -0.232D-01 0.120D+00 0.337D+00 0.566D+00
 Coeff-En:   0.000D+00 0.000D+00 0.194D+00 0.806D+00
 Coeff:     -0.223D-01 0.115D+00 0.331D+00 0.576D+00
 Gap=     0.221 Goal=   None    Shift=    0.000
 RMSDP=1.37D-04 MaxDP=1.02D-02 DE=-3.37D-02 OVMax= 3.28D-02

 Cycle   5  Pass 1  IDiag  1:
 RMSU=  6.97D-05    CP:  9.77D-01  9.14D-01  8.44D-01  7.93D-01
 E= -1193.35303825681     Delta-E=       -0.007731328584 Rises=F Damp=F
 DIIS: error= 5.59D-04 at cycle   5 NSaved=   5.
 NSaved= 5 IEnMin= 5 EnMin= -1193.35303825681     IErMin= 5 ErrMin= 5.59D-04
 ErrMax= 5.59D-04  0.00D+00 EMaxC= 1.00D-01 BMatC= 5.47D-04 BMatP= 1.13D-02
 IDIUse=3 WtCom= 9.94D-01 WtEn= 5.59D-03
 Coeff-Com: -0.113D-01 0.278D-01 0.137D+00 0.306D+00 0.541D+00
 Coeff-En:   0.000D+00 0.000D+00 0.000D+00 0.000D+00 0.100D+01
 Coeff:     -0.112D-01 0.276D-01 0.136D+00 0.304D+00 0.544D+00
 Gap=     0.220 Goal=   None    Shift=    0.000
 RMSDP=3.47D-05 MaxDP=2.02D-03 DE=-7.73D-03 OVMax= 4.67D-03

 Cycle   6  Pass 1  IDiag  1:
 RMSU=  1.93D-05    CP:  9.77D-01  9.23D-01  8.26D-01  7.93D-01  6.43D-01
 E= -1193.35340017949     Delta-E=       -0.000361922675 Rises=F Damp=F
 DIIS: error= 1.63D-04 at cycle   6 NSaved=   6.
 NSaved= 6 IEnMin= 6 EnMin= -1193.35340017949     IErMin= 6 ErrMin= 1.63D-04
 ErrMax= 1.63D-04  0.00D+00 EMaxC= 1.00D-01 BMatC= 2.86D-05 BMatP= 5.47D-04
 IDIUse=3 WtCom= 9.98D-01 WtEn= 1.63D-03
 Coeff-Com: -0.376D-02 0.494D-02 0.392D-01 0.986D-01 0.259D+00 0.602D+00
 Coeff-En:   0.000D+00 0.000D+00 0.000D+00 0.000D+00 0.000D+00 0.100D+01
 Coeff:     -0.375D-02 0.493D-02 0.391D-01 0.985D-01 0.258D+00 0.603D+00
 Gap=     0.221 Goal=   None    Shift=    0.000
 RMSDP=1.14D-05 MaxDP=9.76D-04 DE=-3.62D-04 OVMax= 1.56D-03

 Cycle   7  Pass 1  IDiag  1:
 RMSU=  8.73D-06    CP:  9.77D-01  9.26D-01  8.28D-01  7.78D-01  6.62D-01
                    CP:  7.69D-01
 E= -1193.35341954465     Delta-E=       -0.000019365166 Rises=F Damp=F
 DIIS: error= 4.58D-05 at cycle   7 NSaved=   7.
 NSaved= 7 IEnMin= 7 EnMin= -1193.35341954465     IErMin= 7 ErrMin= 4.58D-05
 ErrMax= 4.58D-05  0.00D+00 EMaxC= 1.00D-01 BMatC= 3.06D-06 BMatP= 2.86D-05
 IDIUse=1 WtCom= 1.00D+00 WtEn= 0.00D+00
 Coeff-Com: -0.992D-03 0.420D-03 0.874D-02 0.242D-01 0.890D-01 0.305D+00
 Coeff-Com:  0.573D+00
 Coeff:     -0.992D-03 0.420D-03 0.874D-02 0.242D-01 0.890D-01 0.305D+00
 Coeff:      0.573D+00
 Gap=     0.220 Goal=   None    Shift=    0.000
 RMSDP=3.85D-06 MaxDP=2.95D-04 DE=-1.94D-05 OVMax= 7.14D-04

 Cycle   8  Pass 1  IDiag  1:
 RMSU=  2.14D-06    CP:  9.77D-01  9.25D-01  8.27D-01  7.83D-01  6.66D-01
                    CP:  8.24D-01  7.36D-01
 E= -1193.35342174320     Delta-E=       -0.000002198547 Rises=F Damp=F
 DIIS: error= 1.13D-05 at cycle   8 NSaved=   8.
 NSaved= 8 IEnMin= 8 EnMin= -1193.35342174320     IErMin= 8 ErrMin= 1.13D-05
 ErrMax= 1.13D-05  0.00D+00 EMaxC= 1.00D-01 BMatC= 2.88D-07 BMatP= 3.06D-06
 IDIUse=1 WtCom= 1.00D+00 WtEn= 0.00D+00
 Coeff-Com: -0.762D-04-0.294D-03-0.185D-03-0.117D-03 0.142D-01 0.728D-01
 Coeff-Com:  0.270D+00 0.644D+00
 Coeff:     -0.762D-04-0.294D-03-0.185D-03-0.117D-03 0.142D-01 0.728D-01
 Coeff:      0.270D+00 0.644D+00
 Gap=     0.221 Goal=   None    Shift=    0.000
 RMSDP=1.09D-06 MaxDP=5.17D-05 DE=-2.20D-06 OVMax= 1.70D-04

 Cycle   9  Pass 1  IDiag  1:
 RMSU=  6.73D-07    CP:  9.77D-01  9.25D-01  8.28D-01  7.83D-01  6.69D-01
                    CP:  8.27D-01  7.95D-01  7.62D-01
 E= -1193.35342196815     Delta-E=       -0.000000224954 Rises=F Damp=F
 DIIS: error= 4.12D-06 at cycle   9 NSaved=   9.
 NSaved= 9 IEnMin= 9 EnMin= -1193.35342196815     IErMin= 9 ErrMin= 4.12D-06
 ErrMax= 4.12D-06  0.00D+00 EMaxC= 1.00D-01 BMatC= 2.71D-08 BMatP= 2.88D-07
 IDIUse=1 WtCom= 1.00D+00 WtEn= 0.00D+00
 Coeff-Com:  0.484D-04-0.171D-03-0.784D-03-0.218D-02-0.127D-02 0.440D-02
 Coeff-Com:  0.688D-01 0.300D+00 0.631D+00
 Coeff:      0.484D-04-0.171D-03-0.784D-03-0.218D-02-0.127D-02 0.440D-02
 Coeff:      0.688D-01 0.300D+00 0.631D+00
 Gap=     0.221 Goal=   None    Shift=    0.000
 RMSDP=2.98D-07 MaxDP=1.83D-05 DE=-2.25D-07 OVMax= 4.89D-05

 Cycle  10  Pass 1  IDiag  1:
 RMSU=  1.95D-07    CP:  9.77D-01  9.25D-01  8.28D-01  7.82D-01  6.69D-01
                    CP:  8.30D-01  8.06D-01  8.01D-01  7.62D-01
 E= -1193.35342199003     Delta-E=       -0.000000021881 Rises=F Damp=F
 DIIS: error= 1.07D-06 at cycle  10 NSaved=  10.
 NSaved=10 IEnMin=10 EnMin= -1193.35342199003     IErMin=10 ErrMin= 1.07D-06
 ErrMax= 1.07D-06  0.00D+00 EMaxC= 1.00D-01 BMatC= 2.70D-09 BMatP= 2.71D-08
 IDIUse=1 WtCom= 1.00D+00 WtEn= 0.00D+00
 Coeff-Com:  0.284D-04-0.654D-04-0.353D-03-0.103D-02-0.143D-02-0.253D-02
 Coeff-Com:  0.167D-01 0.106D+00 0.317D+00 0.565D+00
 Coeff:      0.284D-04-0.654D-04-0.353D-03-0.103D-02-0.143D-02-0.253D-02
 Coeff:      0.167D-01 0.106D+00 0.317D+00 0.565D+00
 Gap=     0.221 Goal=   None    Shift=    0.000
 RMSDP=9.19D-08 MaxDP=5.16D-06 DE=-2.19D-08 OVMax= 1.49D-05

 Cycle  11  Pass 1  IDiag  1:
 RMSU=  6.36D-08    CP:  9.77D-01  9.25D-01  8.28D-01  7.82D-01  6.69D-01
                    CP:  8.31D-01  8.09D-01  8.09D-01  8.11D-01  7.91D-01
 E= -1193.35342199204     Delta-E=       -0.000000002011 Rises=F Damp=F
 DIIS: error= 2.85D-07 at cycle  11 NSaved=  11.
 NSaved=11 IEnMin=11 EnMin= -1193.35342199204     IErMin=11 ErrMin= 2.85D-07
 ErrMax= 2.85D-07  0.00D+00 EMaxC= 1.00D-01 BMatC= 1.89D-10 BMatP= 2.70D-09
 IDIUse=1 WtCom= 1.00D+00 WtEn= 0.00D+00
 Coeff-Com:  0.623D-05-0.713D-05-0.512D-04-0.161D-03-0.478D-03-0.181D-02
 Coeff-Com: -0.230D-02 0.158D-02 0.402D-01 0.224D+00 0.739D+00
 Coeff:      0.623D-05-0.713D-05-0.512D-04-0.161D-03-0.478D-03-0.181D-02
 Coeff:     -0.230D-02 0.158D-02 0.402D-01 0.224D+00 0.739D+00
 Gap=     0.221 Goal=   None    Shift=    0.000
 RMSDP=2.99D-08 MaxDP=1.29D-06 DE=-2.01D-09 OVMax= 6.54D-06

 Cycle  12  Pass 1  IDiag  1:
 RMSU=  2.16D-08    CP:  9.77D-01  9.25D-01  8.28D-01  7.82D-01  6.69D-01
                    CP:  8.31D-01  8.09D-01  8.16D-01  8.16D-01  8.37D-01
                    CP:  9.22D-01
 E= -1193.35342199219     Delta-E=       -0.000000000143 Rises=F Damp=F
 DIIS: error= 2.43D-07 at cycle  12 NSaved=  12.
 NSaved=12 IEnMin=12 EnMin= -1193.35342199219     IErMin=12 ErrMin= 2.43D-07
 ErrMax= 2.43D-07  0.00D+00 EMaxC= 1.00D-01 BMatC= 4.25D-11 BMatP= 1.89D-10
 IDIUse=1 WtCom= 1.00D+00 WtEn= 0.00D+00
 Coeff-Com:  0.193D-06 0.246D-05 0.135D-04 0.328D-04-0.725D-04-0.657D-03
 Coeff-Com: -0.309D-02-0.114D-01-0.153D-01 0.553D-01 0.404D+00 0.571D+00
 Coeff:      0.193D-06 0.246D-05 0.135D-04 0.328D-04-0.725D-04-0.657D-03
 Coeff:     -0.309D-02-0.114D-01-0.153D-01 0.553D-01 0.404D+00 0.571D+00
 Gap=     0.221 Goal=   None    Shift=    0.000
 RMSDP=1.33D-08 MaxDP=6.06D-07 DE=-1.43D-10 OVMax= 1.73D-06

 Cycle  13  Pass 1  IDiag  1:
 RMSU=  5.21D-09    CP:  9.77D-01  9.25D-01  8.28D-01  7.82D-01  6.69D-01
                    CP:  8.31D-01  8.09D-01  8.13D-01  8.21D-01  8.65D-01
                    CP:  9.68D-01  7.20D-01
 E= -1193.35342199221     Delta-E=       -0.000000000027 Rises=F Damp=F
 DIIS: error= 2.61D-08 at cycle  13 NSaved=  13.
 NSaved=13 IEnMin=13 EnMin= -1193.35342199221     IErMin=13 ErrMin= 2.61D-08
 ErrMax= 2.61D-08  0.00D+00 EMaxC= 1.00D-01 BMatC= 1.08D-12 BMatP= 4.25D-11
 IDIUse=1 WtCom= 1.00D+00 WtEn= 0.00D+00
 Coeff-Com: -0.233D-06 0.106D-05 0.819D-05 0.192D-04 0.168D-06-0.125D-03
 Coeff-Com: -0.870D-03-0.386D-02-0.743D-02 0.731D-02 0.990D-01 0.188D+00
 Coeff-Com:  0.718D+00
 Coeff:     -0.233D-06 0.106D-05 0.819D-05 0.192D-04 0.168D-06-0.125D-03
 Coeff:     -0.870D-03-0.386D-02-0.743D-02 0.731D-02 0.990D-01 0.188D+00
 Coeff:      0.718D+00
 Gap=     0.221 Goal=   None    Shift=    0.000
 RMSDP=2.75D-09 MaxDP=1.77D-07 DE=-2.71D-11 OVMax= 3.06D-07

 Error on total polarization charges =  0.00792
 SCF Done:  E(RPBE1PBE) =  -1193.35342199     A.U. after   13 cycles
            NFock= 13  Conv=0.27D-08     -V/T= 2.0040
 KE= 1.188566713578D+03 PE=-5.732228949955D+03 EE= 1.894907650874D+03
 Leave Link  502 at Tue Jul  2 20:00:41 2024, MaxMem=  8053063680 cpu:            1149.9 elap:              72.1
 (Enter /share/apps/g16.b01_avx2/g16/l601.exe)
 Copying SCF densities to generalized density rwf, IOpCl= 0 IROHF=0.

 **********************************************************************

            Population analysis using the SCF Density.

 **********************************************************************

 Orbital symmetries:
       Occupied  (A) (A) (A) (A) (A) (A) (A) (A) (A) (A) (A) (A)
                 (A) (A) (A) (A) (A) (A) (A) (A) (A) (A) (A) (A)
                 (A) (A) (A) (A) (A) (A) (A) (A) (A) (A) (A) (A)
                 (A) (A) (A) (A) (A) (A) (A) (A) (A) (A) (A) (A)
                 (A) (A) (A) (A) (A) (A) (A) (A) (A) (A) (A) (A)
                 (A) (A) (A) (A) (A) (A) (A) (A)
       Virtual   (A) (A) (A) (A) (A) (A) (A) (A) (A) (A) (A) (A)
                 (A) (A) (A) (A) (A) (A) (A) (A) (A) (A) (A) (A)
                 (A) (A) (A) (A) (A) (A) (A) (A) (A) (A) (A) (A)
                 (A) (A) (A) (A) (A) (A) (A) (A) (A) (A) (A) (A)
                 (A) (A) (A) (A) (A) (A) (A) (A) (A) (A) (A) (A)
                 (A) (A) (A) (A) (A) (A) (A) (A) (A) (A) (A) (A)
                 (A) (A) (A) (A) (A) (A) (A) (A) (A) (A) (A) (A)
                 (A) (A) (A) (A) (A) (A) (A) (A) (A) (A) (A) (A)
                 (A) (A) (A) (A) (A) (A) (A) (A) (A) (A) (A) (A)
                 (A) (A) (A) (A) (A) (A) (A) (A) (A) (A) (A) (A)
                 (A) (A) (A) (A) (A) (A) (A) (A) (A) (A) (A) (A)
                 (A) (A) (A) (A) (A) (A) (A) (A) (A) (A) (A) (A)
                 (A) (A) (A) (A) (A) (A) (A) (A) (A) (A) (A) (A)
                 (A) (A) (A) (A) (A) (A) (A) (A) (A) (A) (A) (A)
                 (A) (A) (A) (A) (A) (A) (A) (A) (A) (A) (A) (A)
                 (A) (A) (A) (A) (A) (A) (A) (A) (A) (A) (A) (A)
                 (A) (A) (A) (A) (A) (A) (A) (A) (A) (A) (A) (A)
                 (A) (A) (A) (A) (A) (A) (A) (A) (A) (A) (A) (A)
                 (A) (A) (A) (A) (A) (A) (A) (A) (A) (A) (A) (A)
                 (A) (A) (A) (A) (A) (A) (A) (A) (A) (A) (A) (A)
                 (A) (A) (A) (A) (A) (A) (A) (A) (A) (A) (A) (A)
                 (A) (A) (A) (A) (A) (A) (A) (A) (A) (A) (A) (A)
                 (A) (A) (A) (A) (A) (A) (A) (A) (A) (A) (A) (A)
                 (A) (A) (A) (A) (A) (A) (A) (A) (A) (A) (A) (A)
                 (A) (A) (A) (A) (A) (A) (A) (A) (A) (A) (A) (A)
                 (A) (A) (A) (A) (A) (A) (A) (A) (A) (A) (A) (A)
                 (A) (A) (A) (A) (A) (A) (A) (A) (A) (A) (A) (A)
                 (A) (A) (A) (A) (A) (A) (A) (A) (A) (A) (A) (A)
                 (A) (A) (A) (A) (A) (A) (A) (A) (A) (A) (A) (A)
                 (A) (A) (A) (A) (A) (A) (A) (A) (A) (A) (A) (A)
                 (A) (A) (A) (A) (A) (A) (A) (A) (A) (A) (A) (A)
                 (A) (A) (A) (A) (A) (A) (A) (A) (A) (A) (A) (A)
                 (A) (A) (A) (A) (A) (A) (A) (A) (A) (A) (A) (A)
                 (A) (A) (A) (A) (A) (A) (A) (A) (A) (A) (A) (A)
                 (A) (A) (A) (A) (A) (A) (A) (A) (A) (A) (A) (A)
                 (A) (A) (A) (A) (A) (A) (A) (A) (A) (A) (A) (A)
                 (A) (A) (A) (A) (A) (A) (A) (A) (A) (A) (A) (A)
                 (A) (A) (A) (A) (A) (A) (A) (A) (A) (A) (A) (A)
                 (A) (A) (A) (A) (A) (A) (A) (A) (A) (A) (A) (A)
                 (A) (A) (A) (A) (A) (A) (A) (A) (A) (A) (A) (A)
                 (A) (A) (A) (A) (A) (A) (A) (A) (A) (A) (A) (A)
                 (A) (A) (A) (A) (A) (A) (A) (A) (A) (A) (A) (A)
                 (A) (A) (A) (A)
 The electronic state is 1-A.
 Alpha  occ. eigenvalues --  -24.82534 -24.82369 -24.82338 -24.82169 -24.82143
 Alpha  occ. eigenvalues --  -24.81976 -24.81732 -19.29145 -19.22506 -10.50807
 Alpha  occ. eigenvalues --  -10.40279 -10.35947 -10.35808 -10.35607 -10.35418
 Alpha  occ. eigenvalues --  -10.34863 -10.29318 -10.24701  -1.36413  -1.30297
 Alpha  occ. eigenvalues --   -1.30190  -1.28964  -1.28830  -1.27960  -1.27719
 Alpha  occ. eigenvalues --   -1.14315  -1.06111  -0.96172  -0.85517  -0.83339
 Alpha  occ. eigenvalues --   -0.79575  -0.75884  -0.71430  -0.70417  -0.65800
 Alpha  occ. eigenvalues --   -0.64365  -0.63983  -0.63468  -0.61580  -0.59771
 Alpha  occ. eigenvalues --   -0.58380  -0.57928  -0.55600  -0.55066  -0.53330
 Alpha  occ. eigenvalues --   -0.53074  -0.51811  -0.50929  -0.50796  -0.49995
 Alpha  occ. eigenvalues --   -0.49872  -0.48648  -0.47552  -0.47243  -0.47058
 Alpha  occ. eigenvalues --   -0.46839  -0.45635  -0.44854  -0.44283  -0.43525
 Alpha  occ. eigenvalues --   -0.43243  -0.41253  -0.41030  -0.39268  -0.35659
 Alpha  occ. eigenvalues --   -0.32254  -0.29958  -0.29451
 Alpha virt. eigenvalues --   -0.07401  -0.03587  -0.02493  -0.00949   0.05141
 Alpha virt. eigenvalues --    0.05468   0.07994   0.10612   0.10742   0.12434
 Alpha virt. eigenvalues --    0.12845   0.13308   0.13447   0.14457   0.15835
 Alpha virt. eigenvalues --    0.16226   0.17233   0.18335   0.18631   0.19538
 Alpha virt. eigenvalues --    0.19956   0.20864   0.22039   0.22443   0.23239
 Alpha virt. eigenvalues --    0.23788   0.24350   0.26054   0.26268   0.26752
 Alpha virt. eigenvalues --    0.27219   0.28063   0.28622   0.29334   0.30388
 Alpha virt. eigenvalues --    0.31744   0.32991   0.35080   0.35334   0.35826
 Alpha virt. eigenvalues --    0.35890   0.37772   0.37918   0.38994   0.39824
 Alpha virt. eigenvalues --    0.40469   0.40937   0.41435   0.41929   0.42365
 Alpha virt. eigenvalues --    0.43539   0.44122   0.45195   0.45898   0.46380
 Alpha virt. eigenvalues --    0.47647   0.48959   0.49597   0.50030   0.51476
 Alpha virt. eigenvalues --    0.52693   0.53307   0.53578   0.54836   0.55842
 Alpha virt. eigenvalues --    0.56100   0.57128   0.60324   0.61491   0.62915
 Alpha virt. eigenvalues --    0.63182   0.63494   0.65260   0.65943   0.66600
 Alpha virt. eigenvalues --    0.67923   0.68958   0.69862   0.70582   0.71076
 Alpha virt. eigenvalues --    0.72956   0.73866   0.74205   0.75318   0.75839
 Alpha virt. eigenvalues --    0.77313   0.78005   0.78653   0.79385   0.79669
 Alpha virt. eigenvalues --    0.80806   0.81507   0.82048   0.83779   0.84431
 Alpha virt. eigenvalues --    0.85408   0.85921   0.86899   0.87721   0.88638
 Alpha virt. eigenvalues --    0.89294   0.90438   0.93079   0.93598   0.94790
 Alpha virt. eigenvalues --    0.95144   0.95576   0.96199   0.96925   0.98625
 Alpha virt. eigenvalues --    0.98720   1.00082   1.01442   1.01962   1.04003
 Alpha virt. eigenvalues --    1.05214   1.05613   1.07119   1.08728   1.09912
 Alpha virt. eigenvalues --    1.10009   1.11924   1.13293   1.14908   1.18042
 Alpha virt. eigenvalues --    1.19696   1.22144   1.23712   1.24882   1.25277
 Alpha virt. eigenvalues --    1.26864   1.27903   1.29153   1.31574   1.33034
 Alpha virt. eigenvalues --    1.34474   1.36166   1.39567   1.40941   1.42074
 Alpha virt. eigenvalues --    1.43026   1.43811   1.46520   1.47016   1.48576
 Alpha virt. eigenvalues --    1.49051   1.51220   1.52797   1.53425   1.54235
 Alpha virt. eigenvalues --    1.56856   1.57160   1.59761   1.61726   1.63626
 Alpha virt. eigenvalues --    1.65182   1.65564   1.69007   1.69591   1.72310
 Alpha virt. eigenvalues --    1.74625   1.76044   1.77739   1.79421   1.80242
 Alpha virt. eigenvalues --    1.82764   1.83310   1.85651   1.87376   1.88830
 Alpha virt. eigenvalues --    1.89691   1.91569   1.92553   1.93797   1.94209
 Alpha virt. eigenvalues --    1.94926   1.96783   1.96924   1.98089   1.99320
 Alpha virt. eigenvalues --    1.99939   2.01444   2.03056   2.04774   2.05348
 Alpha virt. eigenvalues --    2.07037   2.07220   2.08958   2.09462   2.12908
 Alpha virt. eigenvalues --    2.13106   2.14719   2.16425   2.17030   2.17902
 Alpha virt. eigenvalues --    2.19453   2.20174   2.21975   2.23058   2.25111
 Alpha virt. eigenvalues --    2.25860   2.28226   2.28421   2.31650   2.33144
 Alpha virt. eigenvalues --    2.33491   2.33870   2.34865   2.35256   2.37576
 Alpha virt. eigenvalues --    2.39009   2.40086   2.43752   2.45682   2.46339
 Alpha virt. eigenvalues --    2.47586   2.48553   2.49498   2.51607   2.54105
 Alpha virt. eigenvalues --    2.55046   2.55747   2.56891   2.57258   2.59565
 Alpha virt. eigenvalues --    2.59892   2.62146   2.63731   2.65829   2.67021
 Alpha virt. eigenvalues --    2.67714   2.70896   2.72575   2.73867   2.75617
 Alpha virt. eigenvalues --    2.77696   2.79397   2.79558   2.80970   2.83270
 Alpha virt. eigenvalues --    2.83634   2.84463   2.85797   2.86232   2.87886
 Alpha virt. eigenvalues --    2.88141   2.88536   2.90186   2.91272   2.91450
 Alpha virt. eigenvalues --    2.92833   2.95287   2.95520   2.96206   2.96626
 Alpha virt. eigenvalues --    2.98801   2.99746   2.99908   3.00994   3.02465
 Alpha virt. eigenvalues --    3.03387   3.04420   3.05569   3.05975   3.07410
 Alpha virt. eigenvalues --    3.08273   3.09071   3.11180   3.11488   3.13079
 Alpha virt. eigenvalues --    3.14215   3.15080   3.16473   3.16919   3.17361
 Alpha virt. eigenvalues --    3.18960   3.19701   3.21165   3.22067   3.23067
 Alpha virt. eigenvalues --    3.23554   3.24110   3.24903   3.26030   3.26555
 Alpha virt. eigenvalues --    3.29083   3.29761   3.31148   3.31616   3.34401
 Alpha virt. eigenvalues --    3.35326   3.36201   3.38401   3.39818   3.40779
 Alpha virt. eigenvalues --    3.42203   3.43467   3.44310   3.44761   3.44957
 Alpha virt. eigenvalues --    3.46576   3.47842   3.49420   3.50329   3.50699
 Alpha virt. eigenvalues --    3.52560   3.54781   3.54889   3.56113   3.59769
 Alpha virt. eigenvalues --    3.62771   3.64290   3.64877   3.67923   3.69068
 Alpha virt. eigenvalues --    3.71207   3.72706   3.75336   3.76416   3.78814
 Alpha virt. eigenvalues --    3.79664   3.83648   3.83816   3.84369   3.85449
 Alpha virt. eigenvalues --    3.86725   3.86902   3.87173   3.93349   3.94014
 Alpha virt. eigenvalues --    3.95547   3.95697   3.98561   3.99698   4.01068
 Alpha virt. eigenvalues --    4.01577   4.03456   4.05126   4.06980   4.10009
 Alpha virt. eigenvalues --    4.13187   4.14901   4.17540   4.18217   4.20810
 Alpha virt. eigenvalues --    4.22238   4.22922   4.25045   4.28914   4.31614
 Alpha virt. eigenvalues --    4.35439   4.37096   4.37884   4.39312   4.40650
 Alpha virt. eigenvalues --    4.42150   4.45494   4.47046   4.52511   4.56966
 Alpha virt. eigenvalues --    4.61640   4.63378   4.65283   4.69608   4.72212
 Alpha virt. eigenvalues --    4.77485   4.85768   4.89111   4.90325   4.94423
 Alpha virt. eigenvalues --    4.95410   4.99498   5.11428   5.15390   5.16629
 Alpha virt. eigenvalues --    5.19692   5.24831   5.26449   5.29574   5.34885
 Alpha virt. eigenvalues --    5.39540   5.44960   5.46256   5.46358   5.53093
 Alpha virt. eigenvalues --    5.53613   5.58981   5.71199   5.77300   5.83478
 Alpha virt. eigenvalues --    5.98850   6.10220   6.13321   6.19328   6.28930
 Alpha virt. eigenvalues --    6.36799   6.46096   6.59077   6.62838   6.71081
 Alpha virt. eigenvalues --    6.78316   6.79636   6.83808   6.84342   6.84385
 Alpha virt. eigenvalues --    6.84489   6.84865   6.85037   6.85075   6.85248
 Alpha virt. eigenvalues --    6.85427   6.85535   6.86086   6.86321   6.86590
 Alpha virt. eigenvalues --    6.86643   6.86720   6.87840   6.92378   6.92658
 Alpha virt. eigenvalues --    6.94918   6.96739   6.97149   6.98556   6.98799
 Alpha virt. eigenvalues --    6.99778   7.00592   7.00948   7.02552   7.03092
 Alpha virt. eigenvalues --    7.03586   7.04267   7.10386   7.10756   7.14034
 Alpha virt. eigenvalues --    7.15142   7.16124   7.22573   7.26795   7.27451
 Alpha virt. eigenvalues --    7.29199   7.30660   7.31101   7.32821   7.35613
 Alpha virt. eigenvalues --    7.36878   7.42324   7.47374   7.48966   7.54119
 Alpha virt. eigenvalues --    7.54426   7.54973   7.57063   7.70685   7.91694
 Alpha virt. eigenvalues --    8.29270   8.30329   8.31266   8.32607   8.34603
 Alpha virt. eigenvalues --    8.36206   8.40782   8.44007   8.45182   8.46521
 Alpha virt. eigenvalues --    8.52526   8.53481   8.57042   8.68960   8.70197
 Alpha virt. eigenvalues --    8.70659   8.70896   8.76789   8.78270   8.78854
 Alpha virt. eigenvalues --    8.82624   8.84953   8.85963   8.88652   8.92301
 Alpha virt. eigenvalues --    8.97660   8.98865   9.00474   9.00735   9.02285
 Alpha virt. eigenvalues --    9.04144   9.06399   9.08869   9.11208   9.22887
 Alpha virt. eigenvalues --   22.12986  22.40508  22.79049  22.90352  22.94400
 Alpha virt. eigenvalues --   22.97356  23.15501  23.16827  23.70508  43.86372
 Alpha virt. eigenvalues --   44.34198  57.22911  57.31296  57.31619  57.39490
 Alpha virt. eigenvalues --   57.40466  57.54191  57.59508
          Condensed to atoms (all electrons):
               1          2          3          4          5          6
     1  O    7.928925   0.590466  -0.067500  -0.000357   0.001788   0.004580
     2  C    0.590466   4.521959   0.357599  -0.007109  -0.027768  -0.033008
     3  C   -0.067500   0.357599   4.916326   0.382202   0.410911   0.393377
     4  H   -0.000357  -0.007109   0.382202   0.482183  -0.015185  -0.015307
     5  H    0.001788  -0.027768   0.410911  -0.015185   0.475642  -0.018668
     6  H    0.004580  -0.033008   0.393377  -0.015307  -0.018668   0.503204
     7  O   -0.088978   0.314909  -0.045690   0.000177   0.002158   0.006605
     8  C    0.008013  -0.083702   0.001220  -0.000400   0.000046   0.000289
     9  C    0.010944   0.005623   0.001153   0.000052  -0.000023  -0.000476
    10  C    0.015477  -0.016721  -0.000339   0.000087   0.000010   0.000049
    11  C   -0.002102   0.005755  -0.000034  -0.000001  -0.000009   0.000039
    12  C   -0.004198   0.001447  -0.000194   0.000014   0.000009  -0.000001
    13  C   -0.001584  -0.001717  -0.000038   0.000002   0.000001   0.000000
    14  F   -0.000189   0.003752  -0.000177   0.000000  -0.000003   0.000077
    15  F   -0.001913   0.009547  -0.001172   0.000173   0.000007   0.000008
    16  F   -0.000001  -0.000002  -0.000000  -0.000000   0.000000   0.000000
    17  F   -0.000003  -0.000008  -0.000000   0.000000   0.000000   0.000000
    18  C   -0.000046  -0.000045  -0.000001   0.000000   0.000000   0.000000
    19  F    0.000000   0.000000   0.000000  -0.000000  -0.000000   0.000000
    20  F   -0.000000  -0.000000  -0.000000   0.000000  -0.000000  -0.000000
    21  F    0.000000   0.000000   0.000000  -0.000000  -0.000000  -0.000000
               7          8          9         10         11         12
     1  O   -0.088978   0.008013   0.010944   0.015477  -0.002102  -0.004198
     2  C    0.314909  -0.083702   0.005623  -0.016721   0.005755   0.001447
     3  C   -0.045690   0.001220   0.001153  -0.000339  -0.000034  -0.000194
     4  H    0.000177  -0.000400   0.000052   0.000087  -0.000001   0.000014
     5  H    0.002158   0.000046  -0.000023   0.000010  -0.000009   0.000009
     6  H    0.006605   0.000289  -0.000476   0.000049   0.000039  -0.000001
     7  O    7.852462   0.238272  -0.021617  -0.037429   0.014329   0.014006
     8  C    0.238272   5.227020   0.313802   0.364480  -0.047413  -0.039970
     9  C   -0.021617   0.313802   4.991809   0.022995   0.293164  -0.046451
    10  C   -0.037429   0.364480   0.022995   4.901687  -0.038749   0.384437
    11  C    0.014329  -0.047413   0.293164  -0.038749   5.165872  -0.009726
    12  C    0.014006  -0.039970  -0.046451   0.384437  -0.009726   5.049991
    13  C    0.000654  -0.020654   0.005107  -0.024806   0.189489   0.200995
    14  F   -0.000007  -0.047541   0.299278   0.007156  -0.051452  -0.000675
    15  F   -0.001953  -0.042875   0.006110   0.282032  -0.000190  -0.041060
    16  F   -0.000039   0.008410  -0.033991  -0.000919   0.300178   0.002081
    17  F   -0.000068   0.006678  -0.001035  -0.040170   0.001896   0.308140
    18  C   -0.000015  -0.003423   0.008548   0.007627  -0.035772  -0.036919
    19  F   -0.000000   0.000219  -0.001084  -0.000715   0.003932   0.003265
    20  F   -0.000000   0.000406  -0.000778  -0.001085   0.015877   0.015407
    21  F   -0.000000   0.000195  -0.000578  -0.000912   0.003771   0.002671
              13         14         15         16         17         18
     1  O   -0.001584  -0.000189  -0.001913  -0.000001  -0.000003  -0.000046
     2  C   -0.001717   0.003752   0.009547  -0.000002  -0.000008  -0.000045
     3  C   -0.000038  -0.000177  -0.001172  -0.000000  -0.000000  -0.000001
     4  H    0.000002   0.000000   0.000173  -0.000000   0.000000   0.000000
     5  H    0.000001  -0.000003   0.000007   0.000000   0.000000   0.000000
     6  H    0.000000   0.000077   0.000008   0.000000   0.000000   0.000000
     7  O    0.000654  -0.000007  -0.001953  -0.000039  -0.000068  -0.000015
     8  C   -0.020654  -0.047541  -0.042875   0.008410   0.006678  -0.003423
     9  C    0.005107   0.299278   0.006110  -0.033991  -0.001035   0.008548
    10  C   -0.024806   0.007156   0.282032  -0.000919  -0.040170   0.007627
    11  C    0.189489  -0.051452  -0.000190   0.300178   0.001896  -0.035772
    12  C    0.200995  -0.000675  -0.041060   0.002081   0.308140  -0.036919
    13  C    5.698659   0.011713   0.011633  -0.067758  -0.067235   0.354613
    14  F    0.011713   8.948027  -0.000022  -0.000068   0.000000  -0.000074
    15  F    0.011633  -0.000022   8.951249   0.000000  -0.000021  -0.000048
    16  F   -0.067758  -0.000068   0.000000   8.960300  -0.000029   0.013433
    17  F   -0.067235   0.000000  -0.000021  -0.000029   8.965230   0.012004
    18  C    0.354613  -0.000074  -0.000048   0.013433   0.012004   4.124688
    19  F   -0.069606   0.000002   0.000000  -0.012708  -0.000083   0.360594
    20  F   -0.101910   0.000001   0.000001  -0.000252  -0.000200   0.363760
    21  F   -0.068973   0.000000   0.000003  -0.000081  -0.014799   0.361121
              19         20         21
     1  O    0.000000  -0.000000   0.000000
     2  C    0.000000  -0.000000   0.000000
     3  C    0.000000  -0.000000   0.000000
     4  H   -0.000000   0.000000  -0.000000
     5  H   -0.000000  -0.000000  -0.000000
     6  H    0.000000  -0.000000  -0.000000
     7  O   -0.000000  -0.000000  -0.000000
     8  C    0.000219   0.000406   0.000195
     9  C   -0.001084  -0.000778  -0.000578
    10  C   -0.000715  -0.001085  -0.000912
    11  C    0.003932   0.015877   0.003771
    12  C    0.003265   0.015407   0.002671
    13  C   -0.069606  -0.101910  -0.068973
    14  F    0.000002   0.000001   0.000000
    15  F    0.000000   0.000001   0.000003
    16  F   -0.012708  -0.000252  -0.000081
    17  F   -0.000083  -0.000200  -0.014799
    18  C    0.360594   0.363760   0.361121
    19  F    8.953303  -0.046252  -0.043474
    20  F   -0.046252   8.950080  -0.046101
    21  F   -0.043474  -0.046101   8.954128
 Mulliken charges:
               1
     1  O   -0.393325
     2  C    0.359021
     3  C   -0.347644
     4  H    0.173466
     5  H    0.171083
     6  H    0.159231
     7  O   -0.247777
     8  C    0.116928
     9  C    0.147446
    10  C    0.175807
    11  C    0.191147
    12  C    0.196732
    13  C   -0.048588
    14  F   -0.169801
    15  F   -0.171511
    16  F   -0.168556
    17  F   -0.170297
    18  C    0.469954
    19  F   -0.147393
    20  F   -0.148955
    21  F   -0.146971
 Sum of Mulliken charges =  -0.00000
 Mulliken charges with hydrogens summed into heavy atoms:
               1
     1  O   -0.393325
     2  C    0.359021
     3  C    0.156136
     7  O   -0.247777
     8  C    0.116928
     9  C    0.147446
    10  C    0.175807
    11  C    0.191147
    12  C    0.196732
    13  C   -0.048588
    14  F   -0.169801
    15  F   -0.171511
    16  F   -0.168556
    17  F   -0.170297
    18  C    0.469954
    19  F   -0.147393
    20  F   -0.148955
    21  F   -0.146971
 Electronic spatial extent (au):  <R**2>=           4499.7838
 Charge=             -0.0000 electrons
 Dipole moment (field-independent basis, Debye):
    X=             -4.1859    Y=              0.9156    Z=             -1.7662  Tot=              4.6347
 Quadrupole moment (field-independent basis, Debye-Ang):
   XX=            -78.7035   YY=           -103.2652   ZZ=            -99.4810
   XY=             -1.8773   XZ=              0.7307   YZ=              1.5585
 Traceless Quadrupole moment (field-independent basis, Debye-Ang):
   XX=             15.1131   YY=             -9.4487   ZZ=             -5.6644
   XY=             -1.8773   XZ=              0.7307   YZ=              1.5585
 Octapole moment (field-independent basis, Debye-Ang**2):
  XXX=           -116.2347  YYY=             -4.4477  ZZZ=             -6.5934  XYY=              9.8520
  XXY=              3.1557  XXZ=              3.7813  XZZ=             24.9418  YZZ=              3.5719
  YYZ=              1.4742  XYZ=             -6.3933
 Hexadecapole moment (field-independent basis, Debye-Ang**3):
 XXXX=          -2930.2851 YYYY=          -1058.4563 ZZZZ=           -366.3504 XXXY=             -5.9929
 XXXZ=            -32.4962 YYYX=              3.5772 YYYZ=              4.0785 ZZZX=             40.9178
 ZZZY=             10.7856 XXYY=           -783.9717 XXZZ=           -700.8898 YYZZ=           -226.8242
 XXYZ=             19.6492 YYXZ=              4.4258 ZZXY=            -13.0679
 N-N= 1.455401163511D+03 E-N=-5.732228943444D+03  KE= 1.188566713578D+03
 No NMR shielding tensors so no spin-rotation constants.
 Leave Link  601 at Tue Jul  2 20:00:42 2024, MaxMem=  8053063680 cpu:               1.9 elap:               0.1
 (Enter /share/apps/g16.b01_avx2/g16/l701.exe)
 ... and contract with generalized density number  0.
 Compute integral first derivatives.
 R6Disp: Adding Grimme-D3 dispersion energy 1st derivatives to the gradient.
   1 Symmetry operations used in ECPInt.
 ECPInt:  NShTT=   22155 NPrTT=   72036 LenC2=   19134 LenP2D=   44008.
 LDataN:  DoStor=T MaxTD1= 7 Len=  274
 D1PCM: PCM CHGder 1st derivatives, ID1Alg=3 FixD1E=F DoIter=F DoCFld=F I1PDM=0.
 GePol: Maximum number of non-zero 1st derivatives   =     239
 Leave Link  701 at Tue Jul  2 20:00:42 2024, MaxMem=  8053063680 cpu:              14.3 elap:               0.9
 (Enter /share/apps/g16.b01_avx2/g16/l702.exe)
 L702 exits ... SP integral derivatives will be done elsewhere.
 Leave Link  702 at Tue Jul  2 20:00:42 2024, MaxMem=  8053063680 cpu:               0.3 elap:               0.0
 (Enter /share/apps/g16.b01_avx2/g16/l703.exe)
 Integral derivatives from FoFJK, PRISM(SPDF).
 Compute integral first derivatives, UseDBF=F ICtDFT=           0.
 Calling FoFJK, ICntrl=      2127 FMM=F ISym2X=0 I1Cent= 0 IOpClX= 0 NMat=1 NMatS=1 NMatT=0.
 FoFJK:  IHMeth= 1 ICntrl=    2127 DoSepK=F KAlg= 0 I1Cent=           0 FoldK=F
 IRaf=         0 NMat=       1 IRICut=       1 DoRegI=T DoRafI=F ISym2E= 0 IDoP0=0 IntGTp=1.
 FoFCou: FMM=F IPFlag=           0 FMFlag=      100000 FMFlg1=         800
         NFxFlg=           0 DoJE=F BraDBF=F KetDBF=F FulRan=T
         wScrn=  0.000000 ICntrl=      2127 IOpCl=  0 I1Cent=           0 NGrid=           0
         NMat0=    1 NMatS0=      1 NMatT0=    0 NMatD0=    1 NMtDS0=    0 NMtDT0=    0
 Symmetry not used in FoFCou.
 Leave Link  703 at Tue Jul  2 20:01:09 2024, MaxMem=  8053063680 cpu:             421.2 elap:              26.3
 (Enter /share/apps/g16.b01_avx2/g16/l716.exe)
 Dipole        =-1.64687925D+00 3.60236224D-01-6.94874023D-01
 ***** Axes restored to original set *****
 -------------------------------------------------------------------
 Center     Atomic                   Forces (Hartrees/Bohr)
 Number     Number              X              Y              Z
 -------------------------------------------------------------------
      1        8           0.079062638   -0.006734933    0.039942784
      2        6          -0.071342463    0.007096653   -0.063359137
      3        6           0.024366277   -0.001449565   -0.038530680
      4        1           0.001414138    0.014208264    0.004408711
      5        1          -0.011819888   -0.004393406   -0.003208873
      6        1           0.011957677   -0.005429987    0.006621110
      7        8           0.009880979   -0.016755826    0.025347382
      8        6          -0.055136999    0.013355363    0.029913891
      9        6           0.015106682   -0.018252696    0.042975137
     10        6           0.009802616    0.012333302    0.025589502
     11        6           0.008200720   -0.027909813   -0.023843991
     12        6          -0.006924510    0.036502131   -0.016149228
     13        6          -0.011774505    0.002735826   -0.047122742
     14        9          -0.010199914    0.017735910   -0.006579531
     15        9          -0.000927494   -0.020937258   -0.012004042
     16        9           0.002788999    0.011373382    0.018770348
     17        9           0.007879460   -0.011882280    0.016177595
     18        6           0.000024726   -0.001951016    0.021343317
     19        9           0.003033257    0.024755632   -0.006596847
     20        9          -0.018080682   -0.003741451   -0.001148967
     21        9           0.012688287   -0.020658232   -0.012545740
 -------------------------------------------------------------------
 Cartesian Forces:  Max     0.079062638 RMS     0.024499917
 Leave Link  716 at Tue Jul  2 20:01:09 2024, MaxMem=  8053063680 cpu:               0.2 elap:               0.0
 (Enter /share/apps/g16.b01_avx2/g16/l103.exe)

 GradGradGradGradGradGradGradGradGradGradGradGradGradGradGradGradGradGrad
 Berny optimization.
 FormGI is forming the generalized inverse of G from B-inverse, IUseBI=4.
 Internal  Forces:  Max     0.088506809 RMS     0.017516337
 Search for a local minimum.
 Step number   1 out of a maximum of  105
 All quantities printed in internal units (Hartrees-Bohrs-Radians)
 RMS Force = .17516D-01 SwitMx=.10000D-02 MixMth= 1
 Mixed Optimization -- RFO/linear search
 Second derivative matrix not updated -- first step.
 ITU=  0
     Eigenvalues ---    0.00237   0.00237   0.00501   0.01295   0.01650
     Eigenvalues ---    0.01671   0.02196   0.02379   0.02408   0.02463
     Eigenvalues ---    0.02557   0.02627   0.02649   0.02653   0.07243
     Eigenvalues ---    0.07243   0.11243   0.11243   0.16000   0.16000
     Eigenvalues ---    0.16000   0.23464   0.24718   0.25000   0.25000
     Eigenvalues ---    0.25000   0.25000   0.25000   0.25000   0.25000
     Eigenvalues ---    0.25000   0.25000   0.25000   0.25000   0.25000
     Eigenvalues ---    0.25000   0.28519   0.28519   0.37230   0.37230
     Eigenvalues ---    0.37230   0.40989   0.43481   0.44912   0.45102
     Eigenvalues ---    0.50001   0.51053   0.53156   0.53911   0.55021
     Eigenvalues ---    0.55021   0.55021   0.55021   0.55021   0.55021
     Eigenvalues ---    0.55021   0.80209
 RFO step:  Lambda=-6.49629099D-02 EMin= 2.36824301D-03
 Linear search not attempted -- first point.
 Maximum step size (   0.300) exceeded in Quadratic search.
    -- Step size scaled by   0.785
 Iteration  1 RMS(Cart)=  0.08280745 RMS(Int)=  0.00206493
 Iteration  2 RMS(Cart)=  0.00348351 RMS(Int)=  0.00056829
 Iteration  3 RMS(Cart)=  0.00001036 RMS(Int)=  0.00056826
 Iteration  4 RMS(Cart)=  0.00000001 RMS(Int)=  0.00056826
 ITry= 1 IFail=0 DXMaxC= 2.53D-01 DCOld= 1.00D+10 DXMaxT= 3.00D-01 DXLimC= 3.00D+00 Rises=F
 Variable       Old X    -DE/DX   Delta X   Delta X   Delta X     New X
                                 (Linear)    (Quad)   (Total)
    R1        2.37803  -0.08851   0.00000  -0.08015  -0.08015   2.29788
    R2        2.91018  -0.03174   0.00000  -0.07117  -0.07117   2.83901
    R3        2.70231  -0.05519   0.00000  -0.09126  -0.09126   2.61105
    R4        2.02201   0.01474   0.00000   0.02646   0.02646   2.04847
    R5        2.02201   0.01123   0.00000   0.02016   0.02016   2.04217
    R6        2.02201   0.01435   0.00000   0.02577   0.02577   2.04777
    R7        2.65157  -0.03473   0.00000  -0.05286  -0.05286   2.59872
    R8        2.63905  -0.01104   0.00000  -0.01985  -0.01987   2.61917
    R9        2.63905  -0.00289   0.00000  -0.00756  -0.00758   2.63147
   R10        2.56112   0.02596   0.00000   0.03366   0.03366   2.59478
   R11        2.55113  -0.02100   0.00000  -0.02680  -0.02680   2.52433
   R12        2.56112   0.02539   0.00000   0.03319   0.03319   2.59432
   R13        2.55113  -0.02373   0.00000  -0.03029  -0.03029   2.52084
   R14        2.57025   0.03202   0.00000   0.04522   0.04524   2.61549
   R15        2.55113  -0.01990   0.00000  -0.02540  -0.02540   2.52573
   R16        2.57025   0.03254   0.00000   0.04604   0.04606   2.61631
   R17        2.55113  -0.01915   0.00000  -0.02444  -0.02444   2.52669
   R18        2.91018  -0.00076   0.00000  -0.00170  -0.00170   2.90848
   R19        2.55113  -0.02041   0.00000  -0.02605  -0.02605   2.52508
   R20        2.55113  -0.01577   0.00000  -0.02012  -0.02012   2.53101
   R21        2.55113  -0.02120   0.00000  -0.02705  -0.02705   2.52408
    A1        2.09440   0.02554   0.00000   0.06366   0.06365   2.15804
    A2        2.09440   0.00736   0.00000   0.01835   0.01834   2.11273
    A3        2.09440  -0.03290   0.00000  -0.08202  -0.08203   2.01236
    A4        1.91063  -0.00300   0.00000  -0.01201  -0.01215   1.89848
    A5        1.91063  -0.00918   0.00000  -0.03238  -0.03246   1.87817
    A6        1.91063   0.00554   0.00000   0.02119   0.02129   1.93193
    A7        1.91063   0.00399   0.00000   0.01019   0.00984   1.92047
    A8        1.91063  -0.00089   0.00000  -0.00244  -0.00240   1.90823
    A9        1.91063   0.00355   0.00000   0.01545   0.01561   1.92624
   A10        2.21763  -0.04623   0.00000  -0.11524  -0.11524   2.10239
   A11        2.18132  -0.02005   0.00000  -0.04059  -0.04230   2.13903
   A12        1.96781   0.02300   0.00000   0.07232   0.07191   2.03972
   A13        2.07879  -0.00012   0.00000  -0.00585  -0.00667   2.07212
   A14        2.08680   0.00694   0.00000   0.01033   0.01045   2.09725
   A15        2.09819  -0.00474   0.00000  -0.00833  -0.00840   2.08979
   A16        2.09819  -0.00220   0.00000  -0.00200  -0.00206   2.09613
   A17        2.08680   0.00964   0.00000   0.01781   0.01797   2.10477
   A18        2.09819  -0.00649   0.00000  -0.01308  -0.01315   2.08504
   A19        2.09819  -0.00315   0.00000  -0.00474  -0.00481   2.09338
   A20        2.10213   0.00464   0.00000   0.01562   0.01577   2.11790
   A21        2.09053  -0.01415   0.00000  -0.03729  -0.03739   2.05313
   A22        2.09053   0.00951   0.00000   0.02167   0.02157   2.11210
   A23        2.10213   0.00019   0.00000   0.00526   0.00544   2.10757
   A24        2.09053  -0.01239   0.00000  -0.03329  -0.03339   2.05713
   A25        2.09053   0.01221   0.00000   0.02804   0.02793   2.11846
   A26        2.10972  -0.02128   0.00000  -0.04318  -0.04301   2.06671
   A27        2.08673   0.00755   0.00000   0.01389   0.01375   2.10049
   A28        2.08673   0.01373   0.00000   0.02929   0.02914   2.11588
   A29        1.91063   0.02028   0.00000   0.04960   0.04861   1.95924
   A30        1.91063   0.00964   0.00000   0.02513   0.02431   1.93494
   A31        1.91063   0.02352   0.00000   0.05849   0.05737   1.96801
   A32        1.91063  -0.01479   0.00000  -0.03658  -0.03722   1.87341
   A33        1.91063  -0.02332   0.00000  -0.06032  -0.06151   1.84912
   A34        1.91063  -0.01534   0.00000  -0.03632  -0.03719   1.87345
    D1       -1.57080   0.00147   0.00000   0.01092   0.01079  -1.56001
    D2        0.52360  -0.00110   0.00000  -0.00378  -0.00353   0.52007
    D3        2.61799   0.00101   0.00000   0.00829   0.00828   2.62627
    D4        1.57080   0.00054   0.00000   0.00051   0.00031   1.57110
    D5       -2.61799  -0.00203   0.00000  -0.01419  -0.01401  -2.63201
    D6       -0.52360   0.00008   0.00000  -0.00212  -0.00221  -0.52581
    D7       -0.08366   0.00084   0.00000   0.00792   0.00803  -0.07563
    D8        3.05794   0.00177   0.00000   0.01833   0.01821   3.07615
    D9       -1.59551  -0.00487   0.00000  -0.04050  -0.04066  -1.63617
   D10        1.18959   0.00498   0.00000   0.04151   0.04167   1.23126
   D11        2.76434   0.01370   0.00000   0.09752   0.09532   2.85966
   D12       -0.37725   0.01251   0.00000   0.09154   0.08980  -0.28745
   D13        0.00000  -0.00063   0.00000  -0.00303  -0.00292  -0.00292
   D14        3.14159  -0.00182   0.00000  -0.00902  -0.00844   3.13315
   D15       -2.80818  -0.00430   0.00000  -0.06519  -0.06754  -2.87571
   D16        0.33342  -0.00503   0.00000  -0.06676  -0.06868   0.26474
   D17       -0.00000   0.00003   0.00000   0.00237   0.00264   0.00263
   D18       -3.14159  -0.00070   0.00000   0.00080   0.00149  -3.14010
   D19        0.00000   0.00019   0.00000  -0.00334  -0.00378  -0.00377
   D20       -3.14159  -0.00173   0.00000  -0.01517  -0.01499   3.12660
   D21       -3.14159   0.00139   0.00000   0.00265   0.00177  -3.13982
   D22        0.00000  -0.00054   0.00000  -0.00918  -0.00945  -0.00945
   D23       -0.00000   0.00102   0.00000   0.00467   0.00434   0.00434
   D24       -3.14159   0.00129   0.00000   0.01135   0.01133  -3.13026
   D25        3.14159   0.00175   0.00000   0.00625   0.00549  -3.13611
   D26       -0.00000   0.00201   0.00000   0.01293   0.01248   0.01248
   D27       -0.00000   0.00087   0.00000   0.01055   0.01058   0.01057
   D28        3.14159  -0.00087   0.00000  -0.00605  -0.00570   3.13589
   D29        3.14159   0.00279   0.00000   0.02238   0.02217  -3.11943
   D30       -0.00000   0.00105   0.00000   0.00578   0.00590   0.00589
   D31        0.00000  -0.00148   0.00000  -0.01123  -0.01081  -0.01080
   D32       -3.14159   0.00025   0.00000   0.00537   0.00562  -3.13597
   D33       -3.14159  -0.00175   0.00000  -0.01791  -0.01805   3.12355
   D34        0.00000  -0.00002   0.00000  -0.00131  -0.00163  -0.00162
   D35        0.55158   0.00137   0.00000   0.00949   0.00946   0.56104
   D36       -1.54282   0.00115   0.00000   0.00853   0.00879  -1.53403
   D37        2.64597  -0.00037   0.00000   0.00180   0.00210   2.64807
   D38       -2.59002  -0.00034   0.00000  -0.00689  -0.00728  -2.59729
   D39        1.59877  -0.00056   0.00000  -0.00786  -0.00795   1.59083
   D40       -0.49562  -0.00208   0.00000  -0.01458  -0.01464  -0.51026
         Item               Value     Threshold  Converged?
 Maximum Force            0.088507     0.000450     NO 
 RMS     Force            0.017516     0.000300     NO 
 Maximum Displacement     0.252885     0.001800     NO 
 RMS     Displacement     0.082913     0.001200     NO 
 Predicted change in Energy=-3.494753D-02
 Lowest energy point so far.  Saving SCF results.
 GradGradGradGradGradGradGradGradGradGradGradGradGradGradGradGradGradGrad

 Leave Link  103 at Tue Jul  2 20:01:09 2024, MaxMem=  8053063680 cpu:               0.3 elap:               0.0
 (Enter /share/apps/g16.b01_avx2/g16/l202.exe)
                          Input orientation:                          
 ---------------------------------------------------------------------
 Center     Atomic      Atomic             Coordinates (Angstroms)
 Number     Number       Type             X           Y           Z
 ---------------------------------------------------------------------
      1          8           0       -2.931632   -1.050096    1.961506
      2          6           0       -1.925023   -1.159777    2.634807
      3          6           0       -1.936777   -1.342229    4.125980
      4          1           0       -1.923104   -0.366017    4.597032
      5          1           0       -2.846525   -1.865212    4.384232
      6          1           0       -1.071400   -1.908703    4.449240
      7          8           0       -0.671427   -1.109451    2.055943
      8          6           0       -0.537296   -1.022467    0.690085
      9          6           0       -0.375509   -2.138259   -0.116045
     10          6           0       -0.900781    0.184166    0.097621
     11          6           0       -0.575739   -2.045205   -1.471274
     12          6           0       -1.097920    0.265234   -1.258583
     13          6           0       -0.944797   -0.850275   -2.064197
     14          9           0       -0.017672   -3.303767    0.429804
     15          9           0       -1.058829    1.267802    0.859356
     16          9           0       -0.388840   -3.148108   -2.202757
     17          9           0       -1.432793    1.453745   -1.771467
     18          6           0       -1.155914   -0.770178   -3.586644
     19          9           0       -1.620046   -1.915801   -4.094184
     20          9           0       -0.005427   -0.492875   -4.213817
     21          9           0       -2.037206    0.170250   -3.937319
 ---------------------------------------------------------------------
                    Distance matrix (angstroms):
                    1          2          3          4          5
     1  O    0.000000
     2  C    1.215987   0.000000
     3  C    2.400006   1.502340   0.000000
     4  H    2.903633   2.116692   1.084004   0.000000
     5  H    2.557589   2.099355   1.080670   1.773576   0.000000
     6  H    3.222808   2.140498   1.083636   1.768367   1.776848
     7  O    2.262955   1.381709   2.437283   2.928570   3.274623
     8  C    2.711110   2.393028   3.723730   4.197097   4.437283
     9  C    3.469017   3.305391   4.589771   5.267730   5.141301
    10  C    3.020236   3.048372   4.430671   4.646778   5.134288
    11  C    4.280707   4.411854   5.803090   6.438897   6.282979
    12  C    3.932119   4.227675   5.681649   5.947069   6.279951
    13  C    4.493743   4.810122   6.288429   6.750078   6.799184
    14  F    3.989525   3.618939   4.603511   5.443053   5.070440
    15  F    3.177227   3.129802   4.272457   4.169719   5.043450
    16  F    5.311171   5.451179   6.760934   7.505407   7.146641
    17  F    4.738229   5.146653   6.546094   6.641514   7.134896
    18  C    5.832109   6.280905   7.773131   8.229488   8.221444
    19  F    6.256283   6.778193   8.246235   8.833510   8.566817
[...]
 0.00228731,0.00418505,0.07091798,-0.27157557,0.12842558,0.01774808,-0.
 04982112,-0.03897933,-0.18911756,0.67247379,0.00595239,-0.00171102,0.0
 0041271,-0.01404265,0.00579329,0.00343559,0.00094114,-0.00042667,-0.00
 080008,0.00008198,0.00005173,-0.00011463,-0.00000190,-0.00017122,-0.00
 047957,0.00018027,-0.00014378,0.00022875,-0.00600406,0.03521602,-0.049
 69242,-0.01225523,0.03649095,-0.15528798,-0.00535839,0.01301538,0.0839
 7731,-0.00867179,-0.00430938,0.72897503,-0.00006762,0.00029284,-0.0004
 4066,0.00054604,-0.00021826,-0.00058586,0.00014421,-0.00010496,-0.0000
 1630,-0.00003181,-0.00001318,-0.00003752,-0.00002890,-0.00001985,-0.00
 004587,-0.00000766,0.00000373,0.00001481,0.00366451,0.00377854,0.00168
 858,0.00535480,-0.01379464,0.00761296,-0.07064275,0.01119415,0.0130125
 9,0.00182300,0.00871954,-0.00947517,0.20228273,-0.00007107,-0.00000461
 ,0.00112252,-0.00121719,-0.00108855,-0.00180047,0.00027504,0.00023230,
 -0.00000827,-0.00000394,-0.00001066,0.00007925,-0.00000610,0.00004518,
 -0.00002791,-0.00000291,0.00001453,-0.00002430,0.00409467,-0.00406761,
 -0.00177719,-0.01396458,0.04480863,-0.02069418,0.01251555,-0.10318186,
 -0.01976475,0.00908944,-0.02220298,0.03253869,-0.17762310,0.64576048,-
 0.00265680,-0.00001348,-0.00072903,0.00692840,0.00001585,-0.00365455,-
 0.00036368,0.00005343,0.00037539,-0.00007314,-0.00004340,0.00006076,0.
 00001798,-0.00001621,0.00024384,-0.00004725,0.00001747,0.00001625,-0.0
 0246405,0.00167457,0.01100589,0.02700884,-0.08026589,-0.03566167,-0.02
 050893,0.07443531,-0.33529094,-0.01050511,0.03332704,-0.06331804,-0.00
 917709,-0.01016871,0.73172564,-0.00006112,-0.00024968,0.00058250,-0.00
 085933,0.00095330,-0.00135414,0.00013671,-0.00010097,-0.00004960,0.000
 01567,-0.00000650,-0.00002369,-0.00001837,-0.00003824,-0.00002066,0.00
 001325,0.00000138,0.00003416,0.00505286,0.00293813,-0.00002409,0.00381
 399,-0.00987477,-0.00975640,0.00225148,0.00572851,0.00911831,-0.071015
 72,0.01226831,-0.01736470,-0.00504763,0.01945394,-0.00551657,0.2036008
 8,0.00069409,0.00000290,-0.00016666,-0.00138792,0.00031152,0.00096692,
 0.00007656,-0.00000546,-0.00011522,0.00003883,0.00002184,-0.00003775,-
 0.00002600,0.00002321,-0.00008972,-0.00001157,0.00001489,-0.00004151,0
 .00395429,-0.00520214,-0.00164419,-0.00822211,0.02311418,0.03201103,0.
 00627937,-0.01083144,-0.02204312,0.01001634,-0.09936311,0.06428567,0.0
 1807847,-0.05096883,0.01121602,-0.18156367,0.65578181,-0.00197090,-0.0
 0000902,0.00194311,0.00346344,-0.00092788,-0.00370018,-0.00022601,0.00
 000348,0.00033554,-0.00003079,-0.00002078,0.00004401,0.00003283,0.0000
 0624,0.00022413,-0.00004202,0.00002814,0.00003491,-0.00129768,-0.00287
 509,0.00877422,-0.03021350,0.09123708,-0.01276290,0.00950110,-0.023628
 26,-0.07449787,0.01587832,-0.02943526,-0.32546836,0.01142813,-0.038634
 02,0.08630033,-0.01154221,0.00048145,0.70827769,0.00009667,-0.00000641
 ,0.00006690,-0.00021122,-0.00014950,0.00044331,-0.00004933,0.00002332,
 0.00000427,0.00000485,0.00000701,0.00000628,0.00000904,0.00000442,0.00
 000807,-0.00000024,-0.00000242,-0.00000310,-0.00166956,-0.00093567,-0.
 00053064,-0.00341389,0.02286286,0.00210006,0.00791446,-0.00674459,-0.0
 2759796,0.00809895,-0.01199327,0.02489553,-0.08556056,0.06447684,-0.01
 412997,-0.07901615,0.06266518,0.02478422,0.21985429,-0.00056293,-0.000
 03411,-0.00102087,0.00206087,0.00016262,-0.00026376,-0.00010541,0.0000
 8088,0.00006409,-0.00001921,-0.00001383,0.00002781,-0.00000158,-0.0000
 0171,0.00003992,-0.00001004,-0.00000079,-0.00001271,-0.00105708,0.0007
 8273,0.00227913,0.02150130,-0.06047770,-0.00644058,-0.00807962,0.02263
 557,0.07936973,-0.01117175,0.03923955,-0.06949336,0.06606793,-0.252456
 40,0.04691790,0.06105427,-0.22594557,-0.05974738,-0.17685407,0.6574843
 5,0.00220541,-0.00015990,-0.00029457,-0.00480058,0.00086881,0.00342258
 ,0.00028168,-0.00007504,-0.00032070,0.00005508,0.00003735,-0.00005690,
 -0.00002820,0.00000038,-0.00021905,0.00002956,-0.00002023,-0.00001040,
 0.00163837,-0.00031115,-0.00939946,0.00199440,-0.00483216,0.00487645,-
 0.00783433,0.02498039,-0.01132924,0.00627111,-0.01685893,-0.02818420,-
 0.03803750,0.11528466,-0.17886752,0.04745060,-0.12460891,-0.21710810,-
 0.01758383,0.01758691,0.67108875,-0.00057979,-0.00000644,-0.00024011,0
 .00156917,-0.00050973,0.00022667,-0.00028423,0.00015822,0.00013146,-0.
 00000713,-0.00000078,0.00005191,0.00003504,0.00001774,0.00011218,-0.00
 001645,0.00000140,-0.00002003,-0.00480000,-0.00309781,0.00087827,0.001
 02782,0.01967525,-0.01059162,-0.06606118,0.08453440,-0.03377001,0.0051
 8040,0.00027509,0.00132769,0.00478911,0.01074704,-0.00275878,-0.001510
 28,-0.00230559,0.00038226,0.00429953,0.00166966,-0.00003356,0.06031000
 ,0.00153924,0.00007041,-0.00066668,-0.00295455,0.00057687,0.00216090,0
 .00034389,-0.00018519,-0.00027719,0.00003402,0.00002438,-0.00006837,-0
 .00003177,-0.00001343,-0.00022178,0.00002476,-0.00002648,-0.00000276,-
 0.00152547,0.00347032,-0.00199635,0.01851758,-0.04840276,0.02618323,0.
 08422967,-0.28743157,0.10394647,-0.00012119,0.00463564,-0.00286753,0.0
 1156564,-0.02606767,0.01033517,-0.00229818,0.00438075,-0.00141517,0.00
 154912,0.00042381,0.00087690,-0.11098343,0.35251501,-0.00043852,0.0001
 9129,0.00005169,0.00106922,-0.00037352,-0.00023891,-0.00026044,0.00003
 623,0.00014697,-0.00001771,-0.00000929,0.00001330,0.00002193,-0.000008
 38,0.00011139,-0.00000635,0.00001435,0.00003059,0.00031021,-0.00213264
 ,0.00645206,0.00470662,-0.01445820,0.00923823,-0.03439324,0.10466175,-
 0.12358047,0.00063969,-0.00059311,-0.00844830,-0.01725666,0.05189439,-
 0.02052613,0.00048643,-0.00174290,0.00389898,0.00218051,-0.00529695,-0
 .00674575,0.04526132,-0.13792343,0.13465815,0.00090438,-0.00174481,0.0
 0027829,-0.00191714,0.00014981,0.00072528,0.00016067,0.00026574,-0.000
 01634,0.00001231,0.00000906,0.00009745,0.00000482,0.00002151,-0.000051
 83,-0.00000274,-0.00001377,-0.00000338,-0.00362288,-0.00362507,-0.0005
 3622,0.00062064,0.01857009,0.01287679,0.00544735,0.00060986,-0.0017375
 8,-0.06353016,0.07360350,0.04611848,-0.00179375,-0.00222566,-0.0005426
 9,0.00514935,0.00851178,0.00378600,0.00362524,0.00183082,0.00005059,-0
 .00019197,0.00197261,0.00007701,0.05826233,-0.00222260,-0.00021581,-0.
 00082391,0.00509452,-0.00097335,-0.00058135,-0.00056774,0.00010056,0.0
 0025498,-0.00004916,-0.00003752,0.00007874,0.00003728,-0.00001163,0.00
 024531,-0.00001039,0.00000418,-0.00000998,-0.00501206,0.00413882,0.003
 19592,0.01756117,-0.04488004,-0.03804370,0.00052780,0.00355291,0.00478
 213,0.07291066,-0.24305850,-0.12720600,-0.00204365,0.00350408,0.001861
 07,0.00806025,-0.01442427,-0.00992803,0.00168724,-0.00065530,0.0002503
 8,0.00196354,-0.00507425,-0.00013673,-0.09559122,0.29504401,-0.0018366
 4,0.00205922,-0.00150335,0.00436810,-0.00143418,0.00026559,-0.00048933
 ,-0.00007936,0.00022176,-0.00003166,-0.00006447,0.00002769,0.00002112,
 0.00001305,0.00016040,-0.00000850,0.00001230,-0.00005680,-0.00156946,0
 .00217638,0.00854587,-0.00148312,0.00348518,0.00423153,-0.00106795,0.0
 0301412,-0.00727084,0.04622710,-0.12799739,-0.16800628,-0.00070542,0.0
 0156793,0.00459496,0.01791301,-0.04996157,-0.03334491,-0.00192210,0.00
 593203,-0.00594713,0.00039791,-0.00117350,0.00161826,-0.06196928,0.168
 62798,0.19507462,-0.00061157,-0.00013470,0.00020380,0.00125287,0.00020
 678,-0.00070860,-0.00007912,-0.00000346,0.00007922,-0.00001046,-0.0000
 0362,0.00001553,0.00000790,-0.00000403,0.00005907,-0.00000990,0.000003
 24,0.00001578,-0.00082620,-0.00017331,0.00140121,0.00506861,0.00106318
 ,-0.00168210,0.00639780,0.01059064,0.00601148,-0.00158559,-0.00154922,
 -0.00189518,-0.06573541,0.07305208,0.04583704,0.00454039,0.00101367,-0
 .00038139,0.00016447,0.01679183,0.00887014,-0.00368765,-0.00512087,-0.
 00025573,-0.00027454,0.00234869,0.00179284,0.06006947,0.00143742,0.000
 19179,-0.00034022,-0.00324100,-0.00022099,0.00194416,0.00020561,-0.000
 00341,-0.00026460,0.00003686,0.00002006,-0.00002907,-0.00001882,0.0000
 1459,-0.00015975,0.00003389,-0.00001213,-0.00003101,0.00175427,-0.0000
 4003,-0.00371778,0.00108503,0.00214358,0.00526436,0.00989507,-0.016964
 35,-0.01407365,-0.00176957,0.00217646,0.00437446,0.07321814,-0.2398885
 2,-0.12300628,0.00089227,0.00173653,0.00203333,0.01725518,-0.04128313,
 -0.02623585,-0.00523627,0.00940051,-0.00009645,0.00234824,-0.00595089,
 -0.00476444,-0.09833196,0.29407524,0.00175904,0.00012467,-0.00003235,-
 0.00436338,-0.00052637,0.00170934,0.00033913,0.00010552,-0.00030359,0.
 00004597,0.00001970,-0.00000181,-0.00002423,0.00003546,-0.00019996,0.0
 0003673,-0.00000978,-0.00004707,0.00318945,-0.00188445,-0.00533303,-0.
 00346552,0.01088778,-0.00041983,0.02009568,-0.05464679,-0.03685758,-0.
 00011510,-0.00035570,0.00729810,0.04492730,-0.12068148,-0.16406268,-0.
 00032274,0.00152019,-0.01023363,-0.00195218,0.00475674,0.01759853,-0.0
 0077048,0.00128764,0.00450042,0.00158257,-0.00440733,-0.00332003,-0.06
 037359,0.16195201,0.19288045,0.00055827,0.00019599,-0.00028675,-0.0010
 4485,-0.00018673,0.00079425,0.00005640,-0.00003281,-0.00010788,0.00000
 834,0.00000691,-0.00002142,-0.00000207,0.00000542,-0.00006113,0.000014
 71,-0.00000476,-0.00000788,0.00028245,0.00030963,-0.00130083,0.0052342
 5,0.00019126,0.00137800,-0.00150655,-0.00182377,0.00173056,0.00581976,
 0.01406435,-0.00516215,0.00497445,0.00092933,0.00014342,-0.06876053,0.
 08544387,-0.03255722,-0.00032363,0.01635943,-0.00476575,-0.00047086,0.
 00281412,-0.00136172,-0.00358270,-0.00503603,-0.00029736,0.00020203,0.
 00209811,0.00038741,0.06165492,-0.00181167,-0.00015187,0.00039277,0.00
 404398,0.00011546,-0.00236096,-0.00024816,0.00003270,0.00032220,-0.000
 04169,-0.00002348,0.00004833,0.00002030,-0.00000335,0.00019129,-0.0000
 4490,0.00002030,0.00001740,-0.00194570,-0.00117874,0.00471790,0.000278
 56,0.00557450,-0.00408035,-0.00172139,0.00305056,-0.00539354,0.0151259
 4,-0.03271574,0.01667300,0.00092262,0.00235143,0.00070740,0.08551788,-
 0.28866036,0.09699038,0.01556929,-0.03981573,0.01277417,0.00275651,-0.
 00772447,0.00398854,-0.00516135,0.00934868,0.00043702,0.00211654,-0.00
 492782,-0.00115098,-0.11459871,0.35568880,0.00133863,0.00016575,-0.000
 22924,-0.00310603,-0.00012000,0.00167257,0.00019633,-0.00007360,-0.000
 23689,0.00002637,0.00001324,-0.00004059,-0.00001065,-0.00000857,-0.000
 14251,0.00004222,-0.00001969,0.00000104,0.00084396,0.00284077,-0.00386
 844,0.00341598,-0.01007828,-0.00381699,-0.00011532,-0.00027604,0.00634
 697,-0.01894610,0.05574637,-0.02379876,0.00009150,0.00091166,-0.010546
 24,-0.03142221,0.09382985,-0.11624581,0.00576652,-0.01731454,0.0202481
 4,-0.00108821,0.00328027,-0.00156500,-0.00035276,0.00066379,0.00420601
 ,0.00008646,-0.00029728,0.00170892,0.04184146,-0.12561805,0.13771277,0
 .00006023,-0.00002400,0.00010894,-0.00029113,0.00005498,-0.00003112,0.
 00003326,-0.00001925,-0.00001489,0.00000344,-0.00000154,-0.00000930,-0
 .00000484,-0.00000201,-0.00001213,0.00000377,0.00000095,0.00000228,0.0
 0063909,0.00020892,-0.00032976,-0.00185911,0.00026398,0.00042835,0.002
 92179,0.00222673,-0.00052379,0.00338919,0.00248964,0.00074265,0.004148
 87,-0.00249553,-0.01211350,0.00474395,-0.00315992,0.01026102,-0.064068
 11,0.00987378,0.00021018,0.00053032,0.00069407,-0.00072839,0.00047060,
 0.00026078,0.00055666,-0.00487284,-0.00092532,0.00205491,-0.00404367,-
 0.00085409,-0.00221947,0.47156515,0.00001436,0.00000555,-0.00003205,-0
 .00003497,0.00000762,0.00000115,0.00001160,-0.00000615,-0.00000752,0.0
 0000035,-0.00000084,-0.00000319,-0.00000230,0.00000090,-0.00000599,0.0
 0000158,0.00000017,-0.00000116,0.00025276,0.00009322,-0.00005019,0.000
 24929,-0.00274239,-0.00043206,0.00235871,-0.00313573,0.00238176,0.0023
 8405,-0.00233316,-0.00208040,-0.00265236,0.00830594,0.03448239,-0.0030
 6494,0.01421155,-0.02788221,0.00982140,-0.08896799,0.00801417,0.000496
 63,-0.00078901,0.00168978,0.00045623,-0.00066678,-0.00183996,-0.001131
 93,-0.00167240,-0.00544954,-0.00074471,-0.00267121,0.00632237,-0.01700
 193,0.51570995,-0.00358823,-0.00002242,0.00057350,0.00779285,-0.000602
 08,-0.00491117,-0.00049467,0.00010572,0.00060157,-0.00008573,-0.000057
 22,0.00009532,0.00004116,-0.00001082,0.00037418,-0.00005991,0.00003234
 ,0.00002955,-0.00333159,0.00000847,0.01252967,-0.00018212,-0.00001153,
 -0.00774466,-0.00299283,0.00743936,0.00106249,0.00307205,-0.00715504,-
 0.00115420,-0.00960003,0.02785686,-0.01066156,0.00913894,-0.02450671,-
 0.01303575,0.00196304,0.00297303,-0.18583896,0.00220792,-0.00660092,0.
 00418702,-0.00192651,0.00544879,0.00511236,0.00402873,-0.01106223,-0.0
 0727618,-0.00463171,0.01306905,-0.00520439,0.00532987,-0.02234910,0.57
 097464,0.00033559,0.00001433,-0.00004352,-0.00073824,0.00002907,0.0004
 3351,0.00004825,-0.00001012,-0.00005429,0.00000743,0.00000523,-0.00000
 832,-0.00000368,0.00000086,-0.00003482,0.00000537,-0.00000334,-0.00000
 285,0.00035541,0.00005434,-0.00108922,-0.00007506,-0.00018423,0.000775
 43,0.00033349,-0.00064222,0.00009975,0.00017608,-0.00008817,0.00027140
 ,0.00100087,-0.00127258,0.00048637,-0.00220871,0.00311377,-0.00202649,
 0.00088981,-0.01378767,-0.01180169,-0.00025425,0.00064142,-0.00038799,
 0.00033051,-0.00056840,-0.00090334,-0.00120670,0.00159327,-0.00112157,
 0.00023050,-0.00077077,0.00015740,-0.12417495,-0.06433018,-0.05174019,
 0.19082929,0.00048637,0.00000386,-0.00004892,-0.00107390,0.00008769,0.
 00064183,0.00006967,-0.00001859,-0.00007824,0.00001122,0.00000774,-0.0
 0001340,-0.00000567,0.00000039,-0.00005021,0.00000744,-0.00000478,-0.0
 0000287,0.00049759,0.00007032,-0.00171243,-0.00022113,0.00004777,0.001
 20806,0.00076164,-0.00056526,-0.00046799,0.00015639,0.00074504,0.00023
 615,0.00214670,-0.00575878,-0.00244203,-0.00147923,0.00304899,0.000350
 99,-0.01252775,-0.00445861,-0.01687571,-0.00026113,0.00089181,-0.00056
 657,0.00028944,-0.00054566,-0.00072419,0.00019035,0.00181618,0.0043556
 3,-0.00002997,-0.00106726,-0.00037654,-0.06650255,-0.14685794,-0.05742
 762,0.13035665,0.23509359,0.00106110,0.00000304,-0.00014130,-0.0023270
 4,0.00018812,0.00140853,0.00015310,-0.00003802,-0.00017641,0.00002503,
 0.00001639,-0.00002970,-0.00001305,0.00000230,-0.00011203,0.00001752,-
 0.00000951,-0.00000740,0.00112593,0.00010538,-0.00372074,-0.00013883,-
 0.00098975,0.00220034,0.00165524,-0.00196075,0.00072875,0.00070859,0.0
 0193387,-0.00022425,0.00214606,-0.00552017,-0.00105305,-0.00533188,0.0
 0852179,-0.00266349,-0.02469576,-0.03356608,-0.02944031,-0.00053400,0.
 00166381,-0.00093958,0.00086092,-0.00145836,-0.00179925,-0.00287103,0.
 00323979,0.00042933,0.00026696,-0.00329301,0.00152119,-0.05093190,-0.0
 5725313,-0.12008243,0.07188064,0.08112829,0.11800660,-0.00056626,-0.00
 001347,0.00012569,0.00121601,-0.00008730,-0.00083466,-0.00007112,0.000
 01645,0.00009959,-0.00001464,-0.00000885,0.00001588,0.00000653,-0.0000
 0172,0.00005964,-0.00001076,0.00000471,0.00000599,-0.00043341,-0.00001
 602,0.00202871,-0.00029022,-0.00004397,-0.00141453,-0.00008865,0.00116
 848,0.00025658,0.00065042,-0.00014904,-0.00036603,-0.00142135,0.005114
 18,0.00122532,0.00066549,-0.00544593,0.00145091,-0.01662496,0.00624798
 ,0.02032646,0.00036209,-0.00111901,0.00067408,-0.00016805,0.00092243,0
 .00123300,0.00094404,-0.00251838,-0.00187330,-0.00075138,0.00119084,0.
 00003253,-0.20300467,0.02377136,0.07314421,-0.07898403,-0.02794075,0.0
 0180251,0.34381902,0.00015711,-0.00000523,-0.00002367,-0.00033622,0.00
 004524,0.00023036,0.00001927,-0.00000565,-0.00002536,0.00000391,0.0000
 0276,-0.00000427,-0.00000153,0.00000010,-0.00001552,0.00000211,-0.0000
 0147,-0.00000054,0.00008483,-0.00000830,-0.00060798,0.00003998,0.00022
 815,0.00042140,-0.00020330,-0.00021836,-0.00048877,-0.00043508,0.00046
 938,0.00001396,0.00156627,-0.00345023,-0.00214368,-0.00049937,0.000059
 28,0.00157060,0.00442994,0.01060371,-0.00506070,-0.00013304,0.00024242
 ,-0.00017913,0.00002155,-0.00004518,0.00001997,-0.00114552,-0.00034993
 ,0.00405788,0.00034647,-0.00013450,-0.00039997,0.02595078,-0.07378402,
 -0.01080422,-0.03891616,0.00431657,0.00451735,-0.04942833,0.09020949,0
 .00101371,0.00001345,-0.00021596,-0.00214723,0.00017171,0.00144395,0.0
 0013128,-0.00002719,-0.00017267,0.00002449,0.00001639,-0.00002603,-0.0
 0001118,0.00000325,-0.00010555,0.00001714,-0.00000898,-0.00000957,0.00
 077324,-0.00002400,-0.00358854,0.00076012,-0.00064008,0.00208906,0.000
 13232,-0.00242281,0.00062224,-0.00197241,0.00098409,-0.00021884,0.0018
 2300,-0.00543802,-0.00103678,-0.00107224,0.00979342,-0.00252535,0.0408
 3948,-0.01004349,-0.02716637,-0.00055739,0.00159825,-0.00089269,0.0002
 4378,-0.00159044,-0.00176611,0.00018955,0.00417989,0.00042585,0.001786
 32,-0.00270914,0.00156335,0.07250027,-0.01121436,-0.11437681,-0.008793
 79,0.00105967,0.01741499,-0.09813689,0.01601819,0.11021991,0.00015065,
 -0.00000140,-0.00002644,-0.00031849,0.00002157,0.00019793,0.00002034,-
 0.00000164,-0.00002423,0.00000313,0.00000263,-0.00000294,-0.00000139,0
 .00000102,-0.00001515,0.00000206,-0.00000141,-0.00000133,0.00012255,-0
 .00004416,-0.00049569,0.00013407,0.00006255,0.00034050,-0.00038902,-0.
 00011884,0.00018117,-0.00035828,0.00004491,0.00008571,0.00160883,-0.00
 086548,-0.00078984,-0.00148616,0.00223650,-0.00068002,0.00598034,0.008
 19151,-0.00449813,-0.00023967,0.00022832,-0.00032028,0.00009574,-0.000
 27312,-0.00022558,0.00025238,0.00018796,-0.00003608,0.00145015,-0.0003
 4405,0.00342137,-0.08619033,0.04914502,-0.02808526,0.01310301,-0.02493
 140,0.00513988,-0.04523408,0.05847634,-0.00754360,0.11129417,-0.000450
 33,0.00000505,0.00006797,0.00097898,-0.00007528,-0.00059281,-0.0000642
 4,0.00000948,0.00007526,-0.00001056,-0.00000710,0.00001137,0.00000540,
 -0.00000245,0.00004723,-0.00000746,0.00000378,0.00000412,-0.00047345,0
 .00009226,0.00153726,0.00004265,0.00001019,-0.00106280,-0.00013023,-0.
 00018775,-0.00073887,0.00012412,-0.00053912,-0.00027995,-0.00108458,0.
 00412412,0.00305607,0.00230731,-0.00730629,0.00180144,0.00886187,-0.01
 730235,0.01436449,0.00023873,-0.00091710,0.00104095,-0.00029837,0.0008
 4594,0.00069390,0.00022163,-0.00026134,0.00000921,-0.00030744,0.002892
 10,-0.00919152,0.04896154,-0.21470728,0.08367628,-0.01523510,-0.086853
 07,0.00276865,0.04833634,-0.02817421,0.00028021,-0.09201681,0.34835045
 ,0.00073103,0.00001791,-0.00012131,-0.00159782,0.00007557,0.00097449,0
 .00010231,-0.00001641,-0.00012469,0.00001744,0.00001095,-0.00001838,-0
 .00000825,0.00000326,-0.00007707,0.00001301,-0.00000657,-0.00000680,0.
 00073575,-0.00000889,-0.00240862,0.00001074,0.00001898,0.00166934,-0.0
 0018839,0.00061463,0.00110096,-0.00066469,0.00154666,0.00086841,0.0026
 3316,-0.00671648,-0.00891489,-0.00092282,0.00233190,0.00175341,-0.0146
 4265,0.04325247,-0.01630581,-0.00061340,0.00188105,-0.00197025,0.00043
 944,-0.00122324,-0.00104438,-0.00042325,0.00109062,0.00153679,0.002233
 43,-0.00572341,-0.00928610,-0.02528087,0.07570922,-0.12525420,0.003903
 58,-0.00819389,0.01868022,0.00014427,-0.00709588,0.01832192,0.03337801
 ,-0.09756845,0.12062694\\0.00000476,0.00000433,-0.00000038,-0.00001283
 ,0.00000107,0.00000120,0.00000365,0.00001164,0.00000166,0.00000131,0.0
 0000189,-0.00000111,-0.00000007,0.00000469,0.00000161,-0.00000142,0.00
 000180,0.00000116,0.00000736,0.00001045,-0.00000179,0.00000161,-0.0000
 0923,0.00000159,-0.00000399,-0.00000076,0.00000381,0.00000499,0.000001
 84,-0.00000716,-0.00000104,-0.00000091,-0.00000217,-0.00000008,0.00000
 199,0.00000331,0.00000338,-0.00000393,0.00000096,-0.00000291,0.0000000
 2,0.00000144,0.00000083,-0.00000004,0.00000036,-0.00000379,-0.00000590
 ,0.00000453,0.00000328,-0.00000292,-0.00000264,-0.00001629,-0.00000659
 ,-0.00000142,0.00000459,-0.00000598,0.00000048,-0.00000223,-0.00000134
 ,-0.00000305,0.00000890,-0.00000213,-0.00000239\\\@


 FLOATING POINT NUMBERS ARE LIKE SANDPILES:
 EVERY TIME THAT YOU MOVE ONE, YOU LOSE A LITTLE SAND 
 AND YOU PICK UP A LITTLE DIRT.
 Job cpu time:       0 days  3 hours 59 minutes 59.7 seconds.
 Elapsed time:       0 days  0 hours 15 minutes  0.2 seconds.
 File lengths (MBytes):  RWF=    712 Int=      0 D2E=      0 Chk=     34 Scr=      1
 Normal termination of Gaussian 16 at Tue Jul  2 20:41:17 2024.
