 Entering Gaussian System, Link 0=g16
 Input=input.com
 Output=input.log
 Initial command:
 /share/apps/g16.b01_avx2/g16/l1.exe "/scratch/Gau-344439.inp" -scrdir="/scratch/"
 Entering Link 1 = /share/apps/g16.b01_avx2/g16/l1.exe PID=    344441.
  
 Copyright (c) 1988-2017, Gaussian, Inc.  All Rights Reserved.
  
 This is part of the Gaussian(R) 16 program.  It is based on
 the Gaussian(R) 09 system (copyright 2009, Gaussian, Inc.),
 the Gaussian(R) 03 system (copyright 2003, Gaussian, Inc.),
 the Gaussian(R) 98 system (copyright 1998, Gaussian, Inc.),
 the Gaussian(R) 94 system (copyright 1995, Gaussian, Inc.),
 the Gaussian 92(TM) system (copyright 1992, Gaussian, Inc.),
 the Gaussian 90(TM) system (copyright 1990, Gaussian, Inc.),
 the Gaussian 88(TM) system (copyright 1988, Gaussian, Inc.),
 the Gaussian 86(TM) system (copyright 1986, Carnegie Mellon
 University), and the Gaussian 82(TM) system (copyright 1983,
 Carnegie Mellon University). Gaussian is a federally registered
 trademark of Gaussian, Inc.
  
 This software contains proprietary and confidential information,
 including trade secrets, belonging to Gaussian, Inc.
  
 This software is provided under written license and may be
 used, copied, transmitted, or stored only in accord with that
 written license.
  
 The following legend is applicable only to US Government
 contracts under FAR:
  
                    RESTRICTED RIGHTS LEGEND
  
 Use, reproduction and disclosure by the US Government is
 subject to restrictions as set forth in subparagraphs (a)
 and (c) of the Commercial Computer Software - Restricted
 Rights clause in FAR 52.227-19.
  
 Gaussian, Inc.
 340 Quinnipiac St., Bldg. 40, Wallingford CT 06492
  
  
 ---------------------------------------------------------------
 Warning -- This program may not be used in any manner that
 competes with the business of Gaussian, Inc. or will provide
 assistance to any competitor of Gaussian, Inc.  The licensee
 of this program is prohibited from giving any competitor of
 Gaussian, Inc. access to this program.  By using this program,
 the user acknowledges that Gaussian, Inc. is engaged in the
 business of creating and licensing software in the field of
 computational chemistry and represents and warrants to the
 licensee that it is not a competitor of Gaussian, Inc. and that
 it will not use this program in any manner prohibited above.
 ---------------------------------------------------------------
  

 Cite this work as:
 Gaussian 16, Revision B.01,
 M. J. Frisch, G. W. Trucks, H. B. Schlegel, G. E. Scuseria, 
 M. A. Robb, J. R. Cheeseman, G. Scalmani, V. Barone, 
 G. A. Petersson, H. Nakatsuji, X. Li, M. Caricato, A. V. Marenich, 
 J. Bloino, B. G. Janesko, R. Gomperts, B. Mennucci, H. P. Hratchian, 
 J. V. Ortiz, A. F. Izmaylov, J. L. Sonnenberg, D. Williams-Young, 
 F. Ding, F. Lipparini, F. Egidi, J. Goings, B. Peng, A. Petrone, 
 T. Henderson, D. Ranasinghe, V. G. Zakrzewski, J. Gao, N. Rega, 
 G. Zheng, W. Liang, M. Hada, M. Ehara, K. Toyota, R. Fukuda, 
 J. Hasegawa, M. Ishida, T. Nakajima, Y. Honda, O. Kitao, H. Nakai, 
 T. Vreven, K. Throssell, J. A. Montgomery, Jr., J. E. Peralta, 
 F. Ogliaro, M. J. Bearpark, J. J. Heyd, E. N. Brothers, K. N. Kudin, 
 V. N. Staroverov, T. A. Keith, R. Kobayashi, J. Normand, 
 K. Raghavachari, A. P. Rendell, J. C. Burant, S. S. Iyengar, 
 J. Tomasi, M. Cossi, J. M. Millam, M. Klene, C. Adamo, R. Cammi, 
 J. W. Ochterski, R. L. Martin, K. Morokuma, O. Farkas, 
 J. B. Foresman, and D. J. Fox, Gaussian, Inc., Wallingford CT, 2016.
 
 ******************************************
 Gaussian 16:  ES64L-G16RevB.01 20-Dec-2017
                28-Aug-2024 
 ******************************************
 %nproc=24
 Will use up to   24 processors via shared memory.
 %mem=64GB
 ----------------------------------------------------------------------
 #P PBE1PBE/def2TZVP opt=(calcfc, ts, noeigentest) freq EmpiricalDisper
 sion=GD3 Int=(grid=99590) scrf=(iefpcm, solvent=water)
 ----------------------------------------------------------------------
 1/5=1,10=4,11=1,18=20,26=6,38=1/1,3;
 2/9=110,12=2,17=6,18=5,40=1/2;
 3/5=44,7=101,11=2,25=1,30=1,70=2201,71=2,72=1,74=-13,75=99590,124=31,140=1/1,2,3;
 4//1;
 5/5=2,38=5,53=1/2;
 8/6=4,10=90,11=11/1;
 11/6=1,8=1,9=11,15=111,16=1/1,2,10;
 10/6=1,13=1/2;
 6/7=2,8=2,9=2,10=2,28=1/1;
 7/10=1,18=20,25=1/1,2,3,16;
 1/5=1,10=4,11=1,18=20,26=6/3(2);
 2/9=110/2;
 99//99;
 2/9=110/2;
 3/5=44,7=101,11=2,25=1,30=1,70=2205,71=1,72=1,74=-13,75=99590,124=31/1,2,3;
 4/5=5,16=3,69=1/1;
 5/5=2,38=5,53=1/2;
 7//1,2,3,16;
 1/5=1,11=1,18=20,26=6/3(-5);
 2/9=110/2;
 6/7=2,8=2,9=2,10=2,19=2,28=1/1;
 99/9=1/99;
 Leave Link    1 at Wed Aug 28 21:43:27 2024, MaxMem=  8589934592 cpu:               0.7 elap:               0.0
 (Enter /share/apps/g16.b01_avx2/g16/l101.exe)
 ----------------
 pfp-oh_ester ts1
 ----------------
 Symbolic Z-matrix:
 Charge =  0 Multiplicity = 1
 H                    -2.32657   1.6415    0.16261 
 O                    -1.82377  -0.72564   1.24022 
 C                    -2.25774  -0.58416   0.10109 
 N                    -3.09036   0.98771   0.02173 
 H                    -3.43878   1.13929  -0.92016 
 C                    -4.12976   1.15763   1.03776 
 H                    -5.02708   0.61666   0.7535 
 H                    -3.75319   0.75212   1.97633 
 H                    -4.3764    2.21118   1.17101 
 C                    -3.25176  -1.51776  -0.5476 
 H                    -4.17552  -1.55471   0.0244 
 H                    -3.47395  -1.2359   -1.57636 
 O                    -1.25866  -0.2855   -0.97109 
 C                     0.00867  -0.13136  -0.55521 
 C                     0.58166   1.13112  -0.45166 
 C                     0.81427  -1.22603  -0.25672 
 C                     1.90334   1.30492  -0.08103 
 C                     2.13532  -1.06893   0.12258 
 C                     2.68342   0.19976   0.21041 
 F                    -0.15878   2.20851  -0.71158 
 F                     0.31675  -2.45299  -0.35147 
 F                     2.42292   2.52395   0.00314 
 F                     2.88397  -2.13066   0.39819 
 F                     3.95125   0.35432   0.56926 
 O                    -2.66773  -2.82303  -0.54029 
 H                    -3.35003  -3.48027  -0.69558 
 
 Add virtual bond connecting atoms N4         and C3         Dist= 3.36D+00.
 ITRead=  0  0  0  0  0  0  0  0  0  0  0  0  0  0  0  0  0  0  0  0
 ITRead=  0  0  0  0  0  0
 MicOpt= -1 -1 -1 -1 -1 -1 -1 -1 -1 -1 -1 -1 -1 -1 -1 -1 -1 -1 -1 -1
 MicOpt= -1 -1 -1 -1 -1 -1
 NAtoms=     26 NQM=       26 NQMF=       0 NMMI=      0 NMMIF=      0
                NMic=       0 NMicF=      0.
                    Isotopes and Nuclear Properties:
 (Nuclear quadrupole moments (NQMom) in fm**2, nuclear magnetic moments (NMagM)
  in nuclear magnetons)

  Atom         1           2           3           4           5           6           7           8           9          10
 IAtWgt=           1          16          12          14           1          12           1           1           1          12
 AtmWgt=   1.0078250  15.9949146  12.0000000  14.0030740   1.0078250  12.0000000   1.0078250   1.0078250   1.0078250  12.0000000
 NucSpn=           1           0           0           2           1           0           1           1           1           0
 AtZEff=  -0.0000000  -0.0000000  -0.0000000  -0.0000000  -0.0000000  -0.0000000  -0.0000000  -0.0000000  -0.0000000  -0.0000000
 NQMom=    0.0000000   0.0000000   0.0000000   2.0440000   0.0000000   0.0000000   0.0000000   0.0000000   0.0000000   0.0000000
 NMagM=    2.7928460   0.0000000   0.0000000   0.4037610   2.7928460   0.0000000   2.7928460   2.7928460   2.7928460   0.0000000
 AtZNuc=   1.0000000   8.0000000   6.0000000   7.0000000   1.0000000   6.0000000   1.0000000   1.0000000   1.0000000   6.0000000

  Atom        11          12          13          14          15          16          17          18          19          20
 IAtWgt=           1           1          16          12          12          12          12          12          12          19
 AtmWgt=   1.0078250   1.0078250  15.9949146  12.0000000  12.0000000  12.0000000  12.0000000  12.0000000  12.0000000  18.9984032
 NucSpn=           1           1           0           0           0           0           0           0           0           1
 AtZEff=  -0.0000000  -0.0000000  -0.0000000  -0.0000000  -0.0000000  -0.0000000  -0.0000000  -0.0000000  -0.0000000  -0.0000000
 NQMom=    0.0000000   0.0000000   0.0000000   0.0000000   0.0000000   0.0000000   0.0000000   0.0000000   0.0000000   0.0000000
 NMagM=    2.7928460   2.7928460   0.0000000   0.0000000   0.0000000   0.0000000   0.0000000   0.0000000   0.0000000   2.6288670
 AtZNuc=   1.0000000   1.0000000   8.0000000   6.0000000   6.0000000   6.0000000   6.0000000   6.0000000   6.0000000   9.0000000

  Atom        21          22          23          24          25          26
 IAtWgt=          19          19          19          19          16           1
 AtmWgt=  18.9984032  18.9984032  18.9984032  18.9984032  15.9949146   1.0078250
 NucSpn=           1           1           1           1           0           1
 AtZEff=  -0.0000000  -0.0000000  -0.0000000  -0.0000000  -0.0000000  -0.0000000
 NQMom=    0.0000000   0.0000000   0.0000000   0.0000000   0.0000000   0.0000000
 NMagM=    2.6288670   2.6288670   2.6288670   2.6288670   0.0000000   2.7928460
 AtZNuc=   9.0000000   9.0000000   9.0000000   9.0000000   8.0000000   1.0000000
 Leave Link  101 at Wed Aug 28 21:43:27 2024, MaxMem=  8589934592 cpu:               6.3 elap:               0.3
 (Enter /share/apps/g16.b01_avx2/g16/l103.exe)

 GradGradGradGradGradGradGradGradGradGradGradGradGradGradGradGradGradGrad
 Berny optimization.
 Initialization pass.
                           ----------------------------
                           !    Initial Parameters    !
                           ! (Angstroms and Degrees)  !
 --------------------------                            --------------------------
 ! Name  Definition              Value          Derivative Info.                !
 --------------------------------------------------------------------------------
 ! R1    R(1,4)                  1.0152         calculate D2E/DX2 analytically  !
 ! R2    R(2,3)                  1.2272         calculate D2E/DX2 analytically  !
 ! R3    R(3,4)                  1.7805         calculate D2E/DX2 analytically  !
 ! R4    R(3,10)                 1.5101         calculate D2E/DX2 analytically  !
 ! R5    R(3,13)                 1.4956         calculate D2E/DX2 analytically  !
 ! R6    R(4,5)                  1.0156         calculate D2E/DX2 analytically  !
 ! R7    R(4,6)                  1.4634         calculate D2E/DX2 analytically  !
 ! R8    R(6,7)                  1.0856         calculate D2E/DX2 analytically  !
 ! R9    R(6,8)                  1.0896         calculate D2E/DX2 analytically  !
 ! R10   R(6,9)                  1.0902         calculate D2E/DX2 analytically  !
 ! R11   R(10,11)                1.0871         calculate D2E/DX2 analytically  !
 ! R12   R(10,12)                1.0896         calculate D2E/DX2 analytically  !
 ! R13   R(10,25)                1.43           calculate D2E/DX2 analytically  !
 ! R14   R(13,14)                1.3427         calculate D2E/DX2 analytically  !
 ! R15   R(14,15)                1.3903         calculate D2E/DX2 analytically  !
 ! R16   R(14,16)                1.3915         calculate D2E/DX2 analytically  !
 ! R17   R(15,17)                1.3836         calculate D2E/DX2 analytically  !
 ! R18   R(15,20)                1.3329         calculate D2E/DX2 analytically  !
 ! R19   R(16,18)                1.3834         calculate D2E/DX2 analytically  !
 ! R20   R(16,21)                1.3274         calculate D2E/DX2 analytically  !
 ! R21   R(17,19)                1.3838         calculate D2E/DX2 analytically  !
 ! R22   R(17,22)                1.3278         calculate D2E/DX2 analytically  !
 ! R23   R(18,19)                1.3848         calculate D2E/DX2 analytically  !
 ! R24   R(18,23)                1.328          calculate D2E/DX2 analytically  !
 ! R25   R(19,24)                1.3267         calculate D2E/DX2 analytically  !
 ! R26   R(25,26)                0.96           calculate D2E/DX2 analytically  !
 ! A1    A(2,3,4)              107.9698         calculate D2E/DX2 analytically  !
 ! A2    A(2,3,10)             124.0725         calculate D2E/DX2 analytically  !
 ! A3    A(2,3,13)             116.8869         calculate D2E/DX2 analytically  !
 ! A4    A(4,3,10)             102.6399         calculate D2E/DX2 analytically  !
 ! A5    A(4,3,13)              95.977          calculate D2E/DX2 analytically  !
 ! A6    A(10,3,13)            104.7864         calculate D2E/DX2 analytically  !
 ! A7    A(1,4,3)              102.1534         calculate D2E/DX2 analytically  !
 ! A8    A(1,4,5)              106.8978         calculate D2E/DX2 analytically  !
 ! A9    A(1,4,6)              111.2992         calculate D2E/DX2 analytically  !
 ! A10   A(3,4,5)              109.4823         calculate D2E/DX2 analytically  !
 ! A11   A(3,4,6)              113.8094         calculate D2E/DX2 analytically  !
 ! A12   A(5,4,6)              112.5123         calculate D2E/DX2 analytically  !
 ! A13   A(4,6,7)              110.3289         calculate D2E/DX2 analytically  !
 ! A14   A(4,6,8)              108.0218         calculate D2E/DX2 analytically  !
 ! A15   A(4,6,9)              110.9623         calculate D2E/DX2 analytically  !
 ! A16   A(7,6,8)              109.0111         calculate D2E/DX2 analytically  !
 ! A17   A(7,6,9)              109.0598         calculate D2E/DX2 analytically  !
 ! A18   A(8,6,9)              109.4245         calculate D2E/DX2 analytically  !
 ! A19   A(3,10,11)            110.7514         calculate D2E/DX2 analytically  !
 ! A20   A(3,10,12)            112.3267         calculate D2E/DX2 analytically  !
 ! A21   A(3,10,25)            107.0541         calculate D2E/DX2 analytically  !
 ! A22   A(11,10,12)           109.4088         calculate D2E/DX2 analytically  !
 ! A23   A(11,10,25)           108.2595         calculate D2E/DX2 analytically  !
 ! A24   A(12,10,25)           108.9191         calculate D2E/DX2 analytically  !
 ! A25   A(3,13,14)            115.5556         calculate D2E/DX2 analytically  !
 ! A26   A(13,14,15)           121.0857         calculate D2E/DX2 analytically  !
 ! A27   A(13,14,16)           121.504          calculate D2E/DX2 analytically  !
 ! A28   A(15,14,16)           117.3723         calculate D2E/DX2 analytically  !
 ! A29   A(14,15,17)           121.8508         calculate D2E/DX2 analytically  !
 ! A30   A(14,15,20)           119.3755         calculate D2E/DX2 analytically  !
 ! A31   A(17,15,20)           118.7734         calculate D2E/DX2 analytically  !
 ! A32   A(14,16,18)           121.4881         calculate D2E/DX2 analytically  !
 ! A33   A(14,16,21)           119.6596         calculate D2E/DX2 analytically  !
 ! A34   A(18,16,21)           118.847          calculate D2E/DX2 analytically  !
 ! A35   A(15,17,19)           119.6426         calculate D2E/DX2 analytically  !
 ! A36   A(15,17,22)           120.4039         calculate D2E/DX2 analytically  !
 ! A37   A(19,17,22)           119.9524         calculate D2E/DX2 analytically  !
 ! A38   A(16,18,19)           119.9596         calculate D2E/DX2 analytically  !
 ! A39   A(16,18,23)           120.2943         calculate D2E/DX2 analytically  !
 ! A40   A(19,18,23)           119.7455         calculate D2E/DX2 analytically  !
 ! A41   A(17,19,18)           119.6832         calculate D2E/DX2 analytically  !
 ! A42   A(17,19,24)           120.1759         calculate D2E/DX2 analytically  !
 ! A43   A(18,19,24)           120.1407         calculate D2E/DX2 analytically  !
 ! A44   A(10,25,26)           109.5            calculate D2E/DX2 analytically  !
 ! D1    D(2,3,4,1)             65.5037         calculate D2E/DX2 analytically  !
 ! D2    D(2,3,4,5)            178.5561         calculate D2E/DX2 analytically  !
 ! D3    D(2,3,4,6)            -54.5728         calculate D2E/DX2 analytically  !
 ! D4    D(10,3,4,1)          -161.9384         calculate D2E/DX2 analytically  !
 ! D5    D(10,3,4,5)           -48.886          calculate D2E/DX2 analytically  !
 ! D6    D(10,3,4,6)            77.9851         calculate D2E/DX2 analytically  !
 ! D7    D(13,3,4,1)           -55.292          calculate D2E/DX2 analytically  !
 ! D8    D(13,3,4,5)            57.7604         calculate D2E/DX2 analytically  !
 ! D9    D(13,3,4,6)          -175.3685         calculate D2E/DX2 analytically  !
 ! D10   D(2,3,10,11)           59.7405         calculate D2E/DX2 analytically  !
 ! D11   D(2,3,10,12)         -177.5922         calculate D2E/DX2 analytically  !
 ! D12   D(2,3,10,25)          -58.0798         calculate D2E/DX2 analytically  !
 ! D13   D(4,3,10,11)          -62.4938         calculate D2E/DX2 analytically  !
 ! D14   D(4,3,10,12)           60.1735         calculate D2E/DX2 analytically  !
 ! D15   D(4,3,10,25)          179.6859         calculate D2E/DX2 analytically  !
 ! D16   D(13,3,10,11)        -162.2564         calculate D2E/DX2 analytically  !
 ! D17   D(13,3,10,12)         -39.589          calculate D2E/DX2 analytically  !
 ! D18   D(13,3,10,25)          79.9233         calculate D2E/DX2 analytically  !
 ! D19   D(2,3,13,14)           -3.4956         calculate D2E/DX2 analytically  !
 ! D20   D(4,3,13,14)          110.1379         calculate D2E/DX2 analytically  !
 ! D21   D(10,3,13,14)        -145.0772         calculate D2E/DX2 analytically  !
 ! D22   D(1,4,6,7)            167.474          calculate D2E/DX2 analytically  !
 ! D23   D(1,4,6,8)            -73.4581         calculate D2E/DX2 analytically  !
 ! D24   D(1,4,6,9)             46.4856         calculate D2E/DX2 analytically  !
 ! D25   D(3,4,6,7)            -77.7537         calculate D2E/DX2 analytically  !
 ! D26   D(3,4,6,8)             41.3142         calculate D2E/DX2 analytically  !
 ! D27   D(3,4,6,9)            161.2579         calculate D2E/DX2 analytically  !
 ! D28   D(5,4,6,7)             47.5206         calculate D2E/DX2 analytically  !
 ! D29   D(5,4,6,8)            166.5885         calculate D2E/DX2 analytically  !
 ! D30   D(5,4,6,9)            -73.4678         calculate D2E/DX2 analytically  !
 ! D31   D(3,10,25,26)         163.1852         calculate D2E/DX2 analytically  !
 ! D32   D(11,10,25,26)         43.7478         calculate D2E/DX2 analytically  !
 ! D33   D(12,10,25,26)        -75.1334         calculate D2E/DX2 analytically  !
 ! D34   D(3,13,14,15)        -103.5116         calculate D2E/DX2 analytically  !
 ! D35   D(3,13,14,16)          78.7882         calculate D2E/DX2 analytically  !
 ! D36   D(13,14,15,17)       -177.1331         calculate D2E/DX2 analytically  !
 ! D37   D(13,14,15,20)          3.068          calculate D2E/DX2 analytically  !
 ! D38   D(16,14,15,17)          0.6589         calculate D2E/DX2 analytically  !
 ! D39   D(16,14,15,20)       -179.14           calculate D2E/DX2 analytically  !
 ! D40   D(13,14,16,18)        177.4962         calculate D2E/DX2 analytically  !
 ! D41   D(13,14,16,21)         -1.6568         calculate D2E/DX2 analytically  !
 ! D42   D(15,14,16,18)         -0.2859         calculate D2E/DX2 analytically  !
 ! D43   D(15,14,16,21)       -179.4389         calculate D2E/DX2 analytically  !
 ! D44   D(14,15,17,19)         -0.6664         calculate D2E/DX2 analytically  !
 ! D45   D(14,15,17,22)        179.7045         calculate D2E/DX2 analytically  !
 ! D46   D(20,15,17,19)        179.1338         calculate D2E/DX2 analytically  !
 ! D47   D(20,15,17,22)         -0.4954         calculate D2E/DX2 analytically  !
 ! D48   D(14,16,18,19)         -0.0743         calculate D2E/DX2 analytically  !
 ! D49   D(14,16,18,23)       -179.795          calculate D2E/DX2 analytically  !
 ! D50   D(21,16,18,19)        179.0854         calculate D2E/DX2 analytically  !
 ! D51   D(21,16,18,23)         -0.6353         calculate D2E/DX2 analytically  !
 ! D52   D(15,17,19,18)          0.2809         calculate D2E/DX2 analytically  !
 ! D53   D(15,17,19,24)       -179.8754         calculate D2E/DX2 analytically  !
 ! D54   D(22,17,19,18)        179.9118         calculate D2E/DX2 analytically  !
 ! D55   D(22,17,19,24)         -0.2446         calculate D2E/DX2 analytically  !
 ! D56   D(16,18,19,17)          0.0802         calculate D2E/DX2 analytically  !
 ! D57   D(16,18,19,24)       -179.7635         calculate D2E/DX2 analytically  !
 ! D58   D(23,18,19,17)        179.8024         calculate D2E/DX2 analytically  !
 ! D59   D(23,18,19,24)         -0.0413         calculate D2E/DX2 analytically  !
 --------------------------------------------------------------------------------
 Trust Radius=3.00D-01 FncErr=5.00D-06 GrdErr=5.00D-06 EigMax=2.50D+02 EigMin=1.00D-04
 Number of steps in this run=    139 maximum allowed number of steps=    156.
 Search for a saddle point of order  1.
 GradGradGradGradGradGradGradGradGradGradGradGradGradGradGradGradGradGrad

 Leave Link  103 at Wed Aug 28 21:43:27 2024, MaxMem=  8589934592 cpu:               0.1 elap:               0.0
 (Enter /share/apps/g16.b01_avx2/g16/l202.exe)
                          Input orientation:                          
 ---------------------------------------------------------------------
 Center     Atomic      Atomic             Coordinates (Angstroms)
 Number     Number       Type             X           Y           Z
 ---------------------------------------------------------------------
      1          1           0       -2.326566    1.641504    0.162606
      2          8           0       -1.823772   -0.725639    1.240224
      3          6           0       -2.257745   -0.584160    0.101089
      4          7           0       -3.090357    0.987705    0.021728
      5          1           0       -3.438781    1.139293   -0.920164
      6          6           0       -4.129761    1.157628    1.037757
      7          1           0       -5.027080    0.616655    0.753504
      8          1           0       -3.753187    0.752118    1.976328
      9          1           0       -4.376399    2.211177    1.171006
     10          6           0       -3.251764   -1.517757   -0.547600
     11          1           0       -4.175523   -1.554709    0.024398
     12          1           0       -3.473947   -1.235900   -1.576364
     13          8           0       -1.258660   -0.285496   -0.971088
     14          6           0        0.008670   -0.131356   -0.555206
     15          6           0        0.581659    1.131115   -0.451657
     16          6           0        0.814272   -1.226032   -0.256722
     17          6           0        1.903338    1.304921   -0.081032
     18          6           0        2.135320   -1.068935    0.122576
     19          6           0        2.683421    0.199763    0.210406
     20          9           0       -0.158784    2.208505   -0.711581
     21          9           0        0.316746   -2.452994   -0.351468
     22          9           0        2.422915    2.523947    0.003140
     23          9           0        2.883973   -2.130662    0.398185
     24          9           0        3.951251    0.354320    0.569262
     25          8           0       -2.667729   -2.823035   -0.540292
     26          1           0       -3.350028   -3.480267   -0.695576
 ---------------------------------------------------------------------
                    Distance matrix (angstroms):
                    1          2          3          4          5
     1  H    0.000000
     2  O    2.649043   0.000000
     3  C    2.227577   1.227183   0.000000
     4  N    1.015222   2.454489   1.780534   0.000000
     5  H    1.631450   3.279253   2.325531   1.015647   0.000000
     6  C    2.061926   2.984170   2.723163   1.463403   2.076354
     7  H    2.948263   3.507112   3.088174   2.103347   2.365800
     8  H    2.473023   2.539342   2.745634   2.077331   2.939119
     9  H    2.354403   3.891733   3.667060   2.114622   2.530031
    10  C    3.367687   2.421348   1.510124   2.574398   2.689553
    11  H    3.695067   2.774225   2.150749   2.764319   2.948327
    12  H    3.552457   3.304030   2.172041   2.765042   2.464422
    13  O    2.477703   2.324431   1.495639   2.441688   2.604908
    14  C    3.018545   2.633360   2.402580   3.345014   3.692243
    15  C    3.015889   3.477944   3.363021   3.705180   4.047654
    16  C    4.273577   3.074169   3.158689   4.497143   4.911556
    17  C    4.250263   4.445249   4.573446   5.004815   5.410158
    18  C    5.220777   4.128123   4.419784   5.616728   6.085571
    19  C    5.213528   4.715049   5.004159   5.830349   6.296210
    20  F    2.405197   3.897554   3.586788   3.259174   3.456169
    21  F    4.900641   3.177901   3.213309   4.856546   5.227994
    22  F    4.833395   5.488582   5.619475   5.723334   6.093376
    23  F    6.436960   4.984574   5.377471   6.749708   7.239328
    24  F    6.421308   5.913323   6.296949   7.091207   7.579390
    25  O    4.532391   2.877771   2.364744   3.875076   4.054487
    26  H    5.293061   3.696587   3.196122   4.532630   4.625868
                    6          7          8          9         10
     6  C    0.000000
     7  H    1.085649   0.000000
     8  H    1.089570   1.771003   0.000000
     9  H    1.090207   1.772059   1.779267   0.000000
    10  C    3.231396   3.065996   3.431322   4.257154   0.000000
    11  H    2.895818   2.443679   3.051205   3.941695   1.087142
    12  H    3.604538   3.357449   4.080663   4.499422   1.089571
    13  O    3.789629   4.241354   3.998321   4.532355   2.381233
    14  C    4.617967   5.256522   4.619606   5.262708   3.542964
    15  C    4.941309   5.759777   4.982935   5.327467   4.660564
    16  C    5.639235   6.207854   5.455389   6.387165   4.086852
    17  C    6.137725   7.014332   6.044386   6.467147   5.895784
    18  C    6.711660   7.385070   6.436392   7.366195   5.447132
    19  C    6.929752   7.740838   6.697275   7.403350   6.225020
    20  F    4.464659   5.327360   4.718649   4.618703   4.845456
    21  F    5.893892   6.261005   5.679413   6.789553   3.694239
    22  F    6.773096   7.726787   6.721390   6.905969   6.988610
    23  F    7.772668   8.382050   7.406271   8.494811   6.238384
    24  F    8.134344   8.984052   7.841967   8.553348   7.525655
    25  O    4.524760   4.367140   4.504810   5.584924   1.430000
    26  H    5.012235   4.658016   5.021423   6.077014   1.970533
                   11         12         13         14         15
    11  H    0.000000
    12  H    1.776594   0.000000
    13  O    3.333164   2.485382   0.000000
    14  C    4.457504   3.793600   1.342700   0.000000
    15  C    5.483709   4.828630   2.379783   1.390278   0.000000
    16  C    5.008504   4.486689   2.385786   1.391547   2.376605
    17  C    6.718716   6.132453   3.649638   2.424355   1.383621
    18  C    6.330273   5.863288   3.650887   2.420967   2.753875
    19  C    7.082223   6.570149   4.143840   2.801802   2.392310
    20  F    5.553165   4.858197   2.738085   2.351052   1.332886
    21  F    4.596594   4.165458   2.750251   2.350835   3.595282
    22  F    7.757272   7.169677   4.732450   3.631937   2.353093
    23  F    7.092808   6.717335   4.737188   3.629538   4.081920
    24  F    8.365747   7.890886   5.470394   4.128469   3.605529
    25  O    2.049626   2.059716   2.934308   3.795849   5.118758
    26  H    2.215306   2.414193   3.828354   4.745078   6.064859
                   16         17         18         19         20
    16  C    0.000000
    17  C    2.760916   0.000000
    18  C    1.383371   2.393839   0.000000
    19  C    2.396835   1.383777   1.384819   0.000000
    20  F    3.598580   2.338034   4.086605   3.600449   0.000000
    21  F    1.327383   4.088072   2.333998   3.599163   4.699509
    22  F    4.088717   1.327806   3.606352   2.347904   2.697313
    23  F    2.351791   3.604792   1.328046   2.346564   5.414640
    24  F    3.608379   2.349569   2.350061   1.326672   4.687318
    25  O    3.841245   6.176212   5.156117   6.191580   5.624992
    26  H    4.755583   7.132570   6.047557   7.125022   6.522762
                   21         22         23         24         25
    21  F    0.000000
    22  F    5.415869   0.000000
    23  F    2.693795   4.694041   0.000000
    24  F    4.683843   2.713593   2.709887   0.000000
    25  O    3.013250   7.402715   5.672875   7.425469   0.000000
    26  H    3.823472   8.358569   6.471516   8.343414   0.960000
                   26
    26  H    0.000000
 Stoichiometry    C9H8F5NO3
 Framework group  C1[X(C9H8F5NO3)]
 Deg. of freedom    72
 Full point group                 C1      NOp   1
 Largest Abelian subgroup         C1      NOp   1
 Largest concise Abelian subgroup C1      NOp   1
                         Standard orientation:                         
 ---------------------------------------------------------------------
 Center     Atomic      Atomic             Coordinates (Angstroms)
 Number     Number       Type             X           Y           Z
 ---------------------------------------------------------------------
      1          1           0        1.925308   -2.071966    0.149040
      2          8           0        1.699574    0.296973    1.312913
      3          6           0        2.131572    0.145898    0.174260
      4          7           0        2.765878   -1.512628    0.042930
      5          1           0        3.108496   -1.670577   -0.900046
      6          6           0        3.759641   -1.847611    1.063602
      7          1           0        4.721203   -1.411253    0.811367
      8          1           0        3.420352   -1.434263    2.012912
      9          1           0        3.872696   -2.927805    1.158214
     10          6           0        3.243345    0.973350   -0.425537
     11          1           0        4.155095    0.874470    0.158255
     12          1           0        3.446117    0.705069   -1.461912
     13          8           0        1.121151    0.013343   -0.920461
     14          6           0       -0.162192    0.001317   -0.525836
     15          6           0       -0.887626   -1.183756   -0.478716
     16          6           0       -0.831954    1.175077   -0.194010
     17          6           0       -2.226570   -1.206875   -0.130720
     18          6           0       -2.168361    1.168124    0.163315
     19          6           0       -2.869605   -0.025606    0.194777
     20          9           0       -0.281031   -2.333780   -0.772098
     21          9           0       -0.185910    2.333923   -0.234616
     22          9           0       -2.893345   -2.354731   -0.100626
     23          9           0       -2.785286    2.303040    0.471657
     24          9           0       -4.152556   -0.035842    0.532401
     25          8           0        2.824120    2.339539   -0.373767
     26          1           0        3.584487    2.912882   -0.495091
 ---------------------------------------------------------------------
 Rotational constants (GHZ):           0.6465214           0.2940355           0.2193527
 Leave Link  202 at Wed Aug 28 21:43:27 2024, MaxMem=  8589934592 cpu:               0.0 elap:               0.0
 (Enter /share/apps/g16.b01_avx2/g16/l301.exe)
 Standard basis: def2TZVP (5D, 7F)
 Ernie: Thresh=  0.10000D-02 Tol=  0.10000D-05 Strict=F.
 There are   696 symmetry adapted cartesian basis functions of A   symmetry.
 There are   606 symmetry adapted basis functions of A   symmetry.
   606 basis functions,   982 primitive gaussians,   696 cartesian basis functions
    69 alpha electrons       69 beta electrons
       nuclear repulsion energy      1485.5220647537 Hartrees.
 IExCor= 1009 DFT=T Ex+Corr=PBE1PBE ExCW=0 ScaHFX=  0.250000
 ScaDFX=  0.750000  0.750000  1.000000  1.000000 ScalE2=  1.000000  1.000000
 IRadAn=  99590 IRanWt=     -1 IRanGd=            0 ICorTp=0 IEmpDi=131
 NAtoms=   26 NActive=   26 NUniq=   26 SFac= 1.00D+00 NAtFMM=   60 NAOKFM=F Big=F
 Integral buffers will be    131072 words long.
 Raffenetti 2 integral format.
 Two-electron integral symmetry is turned on.
 R6Disp:  Grimme-D3 Dispersion energy=       -0.0164963177 Hartrees.
 Nuclear repulsion after empirical dispersion term =     1485.5055684360 Hartrees.
 Force inversion solution in PCM.
 ------------------------------------------------------------------------------
 Polarizable Continuum Model (PCM)
 =================================
 Model                : PCM.
 Atomic radii         : UFF (Universal Force Field).
 Polarization charges : Total charges.
 Charge compensation  : None.
 Solution method      : Matrix inversion.
 Cavity type          : Scaled VdW (van der Waals Surface) (Alpha=1.100).
 Cavity algorithm     : GePol (No added spheres)
                        Default sphere list used, NSphG=   26.
                        Lebedev-Laikov grids with approx.  5.0 points / Ang**2.
                        Smoothing algorithm: York/Karplus (Gamma=1.0000).
                        Polarization charges: spherical gaussians, with
                                              point-specific exponents (IZeta= 3).
                        Self-potential: point-specific (ISelfS= 7).
                        Self-field    : sphere-specific E.n sum rule (ISelfD= 2).
 1st derivatives      : Analytical E(r).r(x)/FMM algorithm (CHGder, D1EAlg=3).
                        Cavity 1st derivative terms included.
 2nd derivatives      : Analytical E(r).r(xy)/FMM algorithm (CHGder, D2EAlg=3).
                        Cavity 2nd derivative terms included.
 Solvent              : Water, Eps=  78.355300 Eps(inf)=   1.777849
 ------------------------------------------------------------------------------
 GePol: Number of generator spheres                  =      26
 GePol: Total number of spheres                      =      26
 GePol: Number of exposed spheres                    =      26 (100.00%)
 GePol: Number of points                             =    2216
 GePol: Average weight of points                     =       0.13
 GePol: Minimum weight of points                     =   0.78D-10
 GePol: Maximum weight of points                     =    0.20577
 GePol: Number of points with low weight             =     122
 GePol: Fraction of low-weight points (<1% of avg)   =       5.51%
 GePol: Cavity surface area                          =    283.658 Ang**2
 GePol: Cavity volume                                =    300.005 Ang**3
 Leave Link  301 at Wed Aug 28 21:43:27 2024, MaxMem=  8589934592 cpu:               0.7 elap:               0.0
 (Enter /share/apps/g16.b01_avx2/g16/l302.exe)
 NPDir=0 NMtPBC=     1 NCelOv=     1 NCel=       1 NClECP=     1 NCelD=      1
         NCelK=      1 NCelE2=     1 NClLst=     1 CellRange=     0.0.
 One-electron integrals computed using PRISM.
 One-electron integral symmetry used in STVInt
   1 Symmetry operations used in ECPInt.
 ECPInt:  NShTT=   26565 NPrTT=   83856 LenC2=   23308 LenP2D=   52514.
 LDataN:  DoStor=T MaxTD1= 6 Len=  172
 NBasis=   606 RedAO= T EigKep=  1.46D-05  NBF=   606
 NBsUse=   606 1.00D-06 EigRej= -1.00D+00 NBFU=   606
 Precomputing XC quadrature grid using
 IXCGrd= 4 IRadAn=       99590 IRanWt=          -1 IRanGd=           0 AccXCQ= 0.00D+00.
 Generated NRdTot=       0 NPtTot=           0 NUsed=           0 NTot=          32
 NSgBfM=   686   686   686   686   686 MxSgAt=    26 MxSgA2=    26.
 Leave Link  302 at Wed Aug 28 21:43:28 2024, MaxMem=  8589934592 cpu:               9.9 elap:               0.4
 (Enter /share/apps/g16.b01_avx2/g16/l303.exe)
 DipDrv:  MaxL=1.
 Leave Link  303 at Wed Aug 28 21:43:28 2024, MaxMem=  8589934592 cpu:               1.2 elap:               0.1
 (Enter /share/apps/g16.b01_avx2/g16/l401.exe)
 ExpMin= 9.52D-02 ExpMax= 3.55D+04 ExpMxC= 1.21D+03 IAcc=4 IRadAn=    199590 AccDes= 0.00D+00
 Harris functional with IExCor= 1009 and IRadAn=  199590 diagonalized for initial guess.
 HarFok:  IExCor= 1009 AccDes= 0.00D+00 IRadAn=    199590 IDoV= 1 UseB2=F ITyADJ=14
 ICtDFT=  3500011 ScaDFX=  1.000000  1.000000  1.000000  1.000000
 FoFCou: FMM=F IPFlag=           0 FMFlag=      100000 FMFlg1=           0
         NFxFlg=           0 DoJE=T BraDBF=F KetDBF=T FulRan=T
         wScrn=  0.000000 ICntrl=       500 IOpCl=  0 I1Cent=   200000004 NGrid=           0
         NMat0=    1 NMatS0=      1 NMatT0=    0 NMatD0=    1 NMtDS0=    0 NMtDT0=    0
 Petite list used in FoFCou.
 Harris En= -1126.74126388301    
 JPrj=0 DoOrth=F DoCkMO=F.
 Leave Link  401 at Wed Aug 28 21:43:30 2024, MaxMem=  8589934592 cpu:              67.3 elap:               2.8
 (Enter /share/apps/g16.b01_avx2/g16/l502.exe)
 Integral symmetry usage will be decided dynamically.
 Closed shell SCF:
 Using DIIS extrapolation, IDIIS=  1040.
 NGot=  8589934592 LenX=  8588943072 LenY=  8588457960
 Requested convergence on RMS density matrix=1.00D-08 within 128 cycles.
 Requested convergence on MAX density matrix=1.00D-06.
 Requested convergence on             energy=1.00D-06.
 No special actions if energy rises.
 Fock matrices will be formed incrementally for  20 cycles.

 Cycle   1  Pass 1  IDiag  1:
 FoFJK:  IHMeth= 1 ICntrl=       0 DoSepK=F KAlg= 0 I1Cent=           0 FoldK=F
 IRaf= 820000000 NMat=       1 IRICut=       1 DoRegI=T DoRafI=F ISym2E= 0 IDoP0=0 IntGTp=1.
 FoFCou: FMM=F IPFlag=           0 FMFlag=      100000 FMFlg1=           0
         NFxFlg=           0 DoJE=F BraDBF=F KetDBF=F FulRan=T
         wScrn=  0.000000 ICntrl=         0 IOpCl=  0 I1Cent=           0 NGrid=           0
         NMat0=    1 NMatS0=      1 NMatT0=    0 NMatD0=    1 NMtDS0=    0 NMtDT0=    0
 Symmetry not used in FoFCou.
 Inv3:  Mode=1 IEnd=    14731968.
 Iteration    1 A*A^-1 deviation from unit magnitude is 3.33D-15 for    437.
 Iteration    1 A*A^-1 deviation from orthogonality  is 2.07D-15 for   1825    440.
 Iteration    1 A^-1*A deviation from unit magnitude is 3.11D-15 for    112.
 Iteration    1 A^-1*A deviation from orthogonality  is 3.11D-15 for   2061   1193.
 E= -1126.39445208556    
 DIIS: error= 1.34D-02 at cycle   1 NSaved=   1.
 NSaved= 1 IEnMin= 1 EnMin= -1126.39445208556     IErMin= 1 ErrMin= 1.34D-02
 ErrMax= 1.34D-02  0.00D+00 EMaxC= 1.00D-01 BMatC= 3.83D-01 BMatP= 3.83D-01
 IDIUse=3 WtCom= 8.66D-01 WtEn= 1.34D-01
 Coeff-Com:  0.100D+01
 Coeff-En:   0.100D+01
 Coeff:      0.100D+01
 Gap=     0.261 Goal=   None    Shift=    0.000
 GapD=    0.261 DampG=1.000 DampE=0.500 DampFc=0.5000 IDamp=-1.
 Damping current iteration by 5.00D-01
 RMSDP=3.23D-03 MaxDP=3.83D-01              OVMax= 2.57D-01

 Cycle   2  Pass 1  IDiag  1:
 RMSU=  1.61D-03    CP:  1.01D+00
 E= -1126.48705860037     Delta-E=       -0.092606514810 Rises=F Damp=T
 DIIS: error= 4.84D-03 at cycle   2 NSaved=   2.
 NSaved= 2 IEnMin= 2 EnMin= -1126.48705860037     IErMin= 2 ErrMin= 4.84D-03
 ErrMax= 4.84D-03  0.00D+00 EMaxC= 1.00D-01 BMatC= 4.43D-02 BMatP= 3.83D-01
 IDIUse=3 WtCom= 9.52D-01 WtEn= 4.84D-02
 Coeff-Com:  0.111D+00 0.889D+00
 Coeff-En:   0.235D+00 0.765D+00
 Coeff:      0.117D+00 0.883D+00
 Gap=     0.290 Goal=   None    Shift=    0.000
 RMSDP=1.06D-03 MaxDP=1.44D-01 DE=-9.26D-02 OVMax= 1.55D-01

 Cycle   3  Pass 1  IDiag  1:
 RMSU=  6.72D-04    CP:  9.91D-01  4.98D-01
 E= -1126.62519744096     Delta-E=       -0.138138840586 Rises=F Damp=F
 DIIS: error= 6.31D-03 at cycle   3 NSaved=   3.
 NSaved= 3 IEnMin= 3 EnMin= -1126.62519744096     IErMin= 2 ErrMin= 4.84D-03
 ErrMax= 6.31D-03  0.00D+00 EMaxC= 1.00D-01 BMatC= 3.59D-02 BMatP= 4.43D-02
 IDIUse=3 WtCom= 9.37D-01 WtEn= 6.31D-02
 Coeff-Com: -0.384D-01 0.476D+00 0.563D+00
 Coeff-En:   0.000D+00 0.000D+00 0.100D+01
 Coeff:     -0.359D-01 0.446D+00 0.590D+00
 Gap=     0.248 Goal=   None    Shift=    0.000
 RMSDP=3.41D-04 MaxDP=2.39D-02 DE=-1.38D-01 OVMax= 5.52D-02

 Cycle   4  Pass 1  IDiag  1:
 RMSU=  3.08D-04    CP:  9.89D-01  5.47D-01  8.17D-01
 E= -1126.64686619409     Delta-E=       -0.021668753137 Rises=F Damp=F
 DIIS: error= 2.07D-03 at cycle   4 NSaved=   4.
 NSaved= 4 IEnMin= 4 EnMin= -1126.64686619409     IErMin= 4 ErrMin= 2.07D-03
 ErrMax= 2.07D-03  0.00D+00 EMaxC= 1.00D-01 BMatC= 5.55D-03 BMatP= 3.59D-02
 IDIUse=3 WtCom= 9.79D-01 WtEn= 2.07D-02
 Coeff-Com: -0.332D-01 0.130D+00 0.326D+00 0.577D+00
 Coeff-En:   0.000D+00 0.000D+00 0.131D+00 0.869D+00
 Coeff:     -0.325D-01 0.127D+00 0.322D+00 0.583D+00
 Gap=     0.247 Goal=   None    Shift=    0.000
 RMSDP=1.34D-04 MaxDP=7.19D-03 DE=-2.17D-02 OVMax= 1.57D-02

 Cycle   5  Pass 1  IDiag  1:
 RMSU=  7.34D-05    CP:  9.89D-01  5.63D-01  9.09D-01  7.07D-01
 E= -1126.65081529247     Delta-E=       -0.003949098372 Rises=F Damp=F
 DIIS: error= 4.81D-04 at cycle   5 NSaved=   5.
 NSaved= 5 IEnMin= 5 EnMin= -1126.65081529247     IErMin= 5 ErrMin= 4.81D-04
 ErrMax= 4.81D-04  0.00D+00 EMaxC= 1.00D-01 BMatC= 4.27D-04 BMatP= 5.55D-03
 IDIUse=3 WtCom= 9.95D-01 WtEn= 4.81D-03
 Coeff-Com: -0.146D-01 0.364D-01 0.126D+00 0.315D+00 0.537D+00
 Coeff-En:   0.000D+00 0.000D+00 0.000D+00 0.000D+00 0.100D+01
 Coeff:     -0.145D-01 0.363D-01 0.125D+00 0.314D+00 0.540D+00
 Gap=     0.247 Goal=   None    Shift=    0.000
 RMSDP=3.82D-05 MaxDP=2.18D-03 DE=-3.95D-03 OVMax= 4.37D-03

 Cycle   6  Pass 1  IDiag  1:
 RMSU=  1.79D-05    CP:  9.89D-01  5.60D-01  8.92D-01  7.42D-01  6.00D-01
 E= -1126.65111499237     Delta-E=       -0.000299699907 Rises=F Damp=F
 DIIS: error= 1.30D-04 at cycle   6 NSaved=   6.
 NSaved= 6 IEnMin= 6 EnMin= -1126.65111499237     IErMin= 6 ErrMin= 1.30D-04
 ErrMax= 1.30D-04  0.00D+00 EMaxC= 1.00D-01 BMatC= 2.60D-05 BMatP= 4.27D-04
 IDIUse=3 WtCom= 9.99D-01 WtEn= 1.30D-03
 Coeff-Com: -0.535D-02 0.960D-02 0.391D-01 0.117D+00 0.272D+00 0.567D+00
 Coeff-En:   0.000D+00 0.000D+00 0.000D+00 0.000D+00 0.000D+00 0.100D+01
 Coeff:     -0.534D-02 0.959D-02 0.390D-01 0.117D+00 0.272D+00 0.568D+00
 Gap=     0.246 Goal=   None    Shift=    0.000
 RMSDP=8.58D-06 MaxDP=5.17D-04 DE=-3.00D-04 OVMax= 1.13D-03

 Cycle   7  Pass 1  IDiag  1:
 RMSU=  6.45D-06    CP:  9.89D-01  5.61D-01  8.92D-01  7.32D-01  6.15D-01
                    CP:  7.67D-01
 E= -1126.65113393180     Delta-E=       -0.000018939430 Rises=F Damp=F
 DIIS: error= 2.63D-05 at cycle   7 NSaved=   7.
 NSaved= 7 IEnMin= 7 EnMin= -1126.65113393180     IErMin= 7 ErrMin= 2.63D-05
 ErrMax= 2.63D-05  0.00D+00 EMaxC= 1.00D-01 BMatC= 1.75D-06 BMatP= 2.60D-05
 IDIUse=1 WtCom= 1.00D+00 WtEn= 0.00D+00
 Coeff-Com: -0.137D-02 0.170D-02 0.795D-02 0.297D-01 0.855D-01 0.265D+00
 Coeff-Com:  0.612D+00
 Coeff:     -0.137D-02 0.170D-02 0.795D-02 0.297D-01 0.855D-01 0.265D+00
 Coeff:      0.612D+00
 Gap=     0.247 Goal=   None    Shift=    0.000
 RMSDP=2.75D-06 MaxDP=2.54D-04 DE=-1.89D-05 OVMax= 2.65D-04

 Cycle   8  Pass 1  IDiag  1:
 RMSU=  1.56D-06    CP:  9.89D-01  5.61D-01  8.93D-01  7.36D-01  6.20D-01
                    CP:  8.20D-01  8.07D-01
 E= -1126.65113508560     Delta-E=       -0.000001153797 Rises=F Damp=F
 DIIS: error= 1.21D-05 at cycle   8 NSaved=   8.
 NSaved= 8 IEnMin= 8 EnMin= -1126.65113508560     IErMin= 8 ErrMin= 1.21D-05
 ErrMax= 1.21D-05  0.00D+00 EMaxC= 1.00D-01 BMatC= 2.02D-07 BMatP= 1.75D-06
 IDIUse=1 WtCom= 1.00D+00 WtEn= 0.00D+00
 Coeff-Com: -0.149D-03-0.358D-04-0.717D-04 0.252D-02 0.134D-01 0.680D-01
 Coeff-Com:  0.299D+00 0.617D+00
 Coeff:     -0.149D-03-0.358D-04-0.717D-04 0.252D-02 0.134D-01 0.680D-01
 Coeff:      0.299D+00 0.617D+00
 Gap=     0.246 Goal=   None    Shift=    0.000
 RMSDP=7.01D-07 MaxDP=4.66D-05 DE=-1.15D-06 OVMax= 1.22D-04

 Cycle   9  Pass 1  IDiag  1:
 RMSU=  4.76D-07    CP:  9.89D-01  5.61D-01  8.93D-01  7.35D-01  6.21D-01
                    CP:  8.24D-01  8.57D-01  7.85D-01
 E= -1126.65113523459     Delta-E=       -0.000000148991 Rises=F Damp=F
 DIIS: error= 2.96D-06 at cycle   9 NSaved=   9.
 NSaved= 9 IEnMin= 9 EnMin= -1126.65113523459     IErMin= 9 ErrMin= 2.96D-06
 ErrMax= 2.96D-06  0.00D+00 EMaxC= 1.00D-01 BMatC= 1.83D-08 BMatP= 2.02D-07
 IDIUse=1 WtCom= 1.00D+00 WtEn= 0.00D+00
 Coeff-Com:  0.671D-04-0.179D-03-0.857D-03-0.195D-02-0.312D-02 0.460D-03
 Coeff-Com:  0.622D-01 0.289D+00 0.655D+00
 Coeff:      0.671D-04-0.179D-03-0.857D-03-0.195D-02-0.312D-02 0.460D-03
 Coeff:      0.622D-01 0.289D+00 0.655D+00
 Gap=     0.246 Goal=   None    Shift=    0.000
 RMSDP=2.60D-07 MaxDP=1.37D-05 DE=-1.49D-07 OVMax= 2.76D-05

 Cycle  10  Pass 1  IDiag  1:
 RMSU=  1.26D-07    CP:  9.89D-01  5.61D-01  8.93D-01  7.35D-01  6.20D-01
                    CP:  8.28D-01  8.67D-01  8.60D-01  7.71D-01
 E= -1126.65113525015     Delta-E=       -0.000000015561 Rises=F Damp=F
 DIIS: error= 5.15D-07 at cycle  10 NSaved=  10.
 NSaved=10 IEnMin=10 EnMin= -1126.65113525015     IErMin=10 ErrMin= 5.15D-07
 ErrMax= 5.15D-07  0.00D+00 EMaxC= 1.00D-01 BMatC= 4.63D-10 BMatP= 1.83D-08
 IDIUse=1 WtCom= 1.00D+00 WtEn= 0.00D+00
 Coeff-Com:  0.231D-04-0.582D-04-0.299D-03-0.700D-03-0.134D-02-0.128D-02
 Coeff-Com:  0.153D-01 0.890D-01 0.239D+00 0.661D+00
 Coeff:      0.231D-04-0.582D-04-0.299D-03-0.700D-03-0.134D-02-0.128D-02
 Coeff:      0.153D-01 0.890D-01 0.239D+00 0.661D+00
 Gap=     0.246 Goal=   None    Shift=    0.000
 RMSDP=6.27D-08 MaxDP=4.23D-06 DE=-1.56D-08 OVMax= 1.05D-05

 Cycle  11  Pass 1  IDiag  1:
 RMSU=  4.34D-08    CP:  9.89D-01  5.61D-01  8.93D-01  7.35D-01  6.20D-01
                    CP:  8.28D-01  8.70D-01  8.57D-01  7.97D-01  7.68D-01
 E= -1126.65113525046     Delta-E=       -0.000000000308 Rises=F Damp=F
 DIIS: error= 3.39D-07 at cycle  11 NSaved=  11.
 NSaved=11 IEnMin=11 EnMin= -1126.65113525046     IErMin=11 ErrMin= 3.39D-07
 ErrMax= 3.39D-07  0.00D+00 EMaxC= 1.00D-01 BMatC= 1.43D-10 BMatP= 4.63D-10
 IDIUse=1 WtCom= 1.00D+00 WtEn= 0.00D+00
 Coeff-Com:  0.344D-05-0.521D-05-0.514D-04-0.121D-03-0.359D-03-0.905D-03
 Coeff-Com: -0.150D-02 0.496D-02 0.309D-01 0.364D+00 0.604D+00
 Coeff:      0.344D-05-0.521D-05-0.514D-04-0.121D-03-0.359D-03-0.905D-03
 Coeff:     -0.150D-02 0.496D-02 0.309D-01 0.364D+00 0.604D+00
 Gap=     0.246 Goal=   None    Shift=    0.000
 RMSDP=2.30D-08 MaxDP=1.45D-06 DE=-3.08D-10 OVMax= 2.53D-06

 Cycle  12  Pass 1  IDiag  1:
 RMSU=  1.13D-08    CP:  9.89D-01  5.61D-01  8.93D-01  7.35D-01  6.20D-01
                    CP:  8.28D-01  8.70D-01  8.63D-01  7.98D-01  8.54D-01
                    CP:  7.73D-01
 E= -1126.65113525059     Delta-E=       -0.000000000133 Rises=F Damp=F
 DIIS: error= 5.44D-08 at cycle  12 NSaved=  12.
 NSaved=12 IEnMin=12 EnMin= -1126.65113525059     IErMin=12 ErrMin= 5.44D-08
 ErrMax= 5.44D-08  0.00D+00 EMaxC= 1.00D-01 BMatC= 6.10D-12 BMatP= 1.43D-10
 IDIUse=1 WtCom= 1.00D+00 WtEn= 0.00D+00
 Coeff-Com: -0.366D-06 0.236D-05-0.175D-05 0.586D-06-0.656D-04-0.253D-03
 Coeff-Com: -0.181D-02-0.486D-02-0.655D-02 0.968D-01 0.229D+00 0.687D+00
 Coeff:     -0.366D-06 0.236D-05-0.175D-05 0.586D-06-0.656D-04-0.253D-03
 Coeff:     -0.181D-02-0.486D-02-0.655D-02 0.968D-01 0.229D+00 0.687D+00
 Gap=     0.246 Goal=   None    Shift=    0.000
 RMSDP=6.71D-09 MaxDP=5.11D-07 DE=-1.33D-10 OVMax= 7.07D-07

 Error on total polarization charges =  0.00894
 SCF Done:  E(RPBE1PBE) =  -1126.65113525     A.U. after   12 cycles
            NFock= 12  Conv=0.67D-08     -V/T= 2.0038
 KE= 1.122401292465D+03 PE=-5.631632956984D+03 EE= 1.897074960832D+03
 Leave Link  502 at Wed Aug 28 21:44:53 2024, MaxMem=  8589934592 cpu:            1959.0 elap:              82.1
 (Enter /share/apps/g16.b01_avx2/g16/l801.exe)
 DoSCS=F DFT=T ScalE2(SS,OS)=  1.000000  1.000000
 Range of M.O.s used for correlation:     1   606
 NBasis=   606 NAE=    69 NBE=    69 NFC=     0 NFV=     0
 NROrb=    606 NOA=    69 NOB=    69 NVA=   537 NVB=   537

 **** Warning!!: The largest alpha MO coefficient is  0.48748626D+02

 Leave Link  801 at Wed Aug 28 21:44:53 2024, MaxMem=  8589934592 cpu:               0.5 elap:               0.0
 (Enter /share/apps/g16.b01_avx2/g16/l1101.exe)
 Using compressed storage, NAtomX=    26.
 Will process     27 centers per pass.
   1 Symmetry operations used in ECPInt.
 ECPInt:  NShTT=   26565 NPrTT=   83856 LenC2=   23308 LenP2D=   52514.
 LDataN:  DoStor=T MaxTD1= 7 Len=  274
 Number of processors reduced to  20 by ecpmxn.
 R6Disp: Adding Grimme-D3 dispersion energy 1st derivatives to the gradient.
 Leave Link 1101 at Wed Aug 28 21:44:54 2024, MaxMem=  8589934592 cpu:              27.3 elap:               1.2
 (Enter /share/apps/g16.b01_avx2/g16/l1102.exe)
 Symmetrizing basis deriv contribution to polar:
 IMax=3 JMax=2 DiffMx= 0.00D+00
 Leave Link 1102 at Wed Aug 28 21:44:54 2024, MaxMem=  8589934592 cpu:               1.0 elap:               0.1
 (Enter /share/apps/g16.b01_avx2/g16/l1110.exe)
 Forming Gx(P) for the SCF density, NAtomX=    26.
 Integral derivatives from FoFJK, PRISM(SPDF).
 Do as many integral derivatives as possible in FoFJK.
 G2DrvN: MDV=    8589932376.
 G2DrvN: will do    27 centers at a time, making    1 passes.
 Calling FoFCou, ICntrl=  3107 FMM=F I1Cent=   0 AccDes= 0.00D+00.
 FoFJK:  IHMeth= 1 ICntrl=    3107 DoSepK=F KAlg= 0 I1Cent=           0 FoldK=F
 IRaf=         0 NMat=       1 IRICut=       1 DoRegI=T DoRafI=F ISym2E= 0 IDoP0=0 IntGTp=1.
 FoFCou: FMM=F IPFlag=           0 FMFlag=      100000 FMFlg1=           0
         NFxFlg=           0 DoJE=F BraDBF=F KetDBF=F FulRan=T
         wScrn=  0.000000 ICntrl=      3107 IOpCl=  0 I1Cent=           0 NGrid=           0
         NMat0=    1 NMatS0=      1 NMatT0=    0 NMatD0=    1 NMtDS0=    0 NMtDT0=    0
 Symmetry not used in FoFCou.
 NEqPCM:  Using equilibrium solvation (IEInf=0, Eps=  78.3553, EpsInf=   1.7778)
 G2PCM: DoFxE=T DoFxN=T DoGrad=T DoDP/DQ/DG/TGxP=FFFF NFrqRd=   0 IEInf=0 SqF1=F DoCFld=F IF1Alg=4.
 GePol: Maximum number of non-zero 1st derivatives   =     222
 End of G2Drv F.D. properties file   721 does not exist.
 End of G2Drv F.D. properties file   722 does not exist.
 End of G2Drv F.D. properties file   788 does not exist.
 Leave Link 1110 at Wed Aug 28 21:47:28 2024, MaxMem=  8589934592 cpu:            3701.4 elap:             154.4
 (Enter /share/apps/g16.b01_avx2/g16/l1002.exe)
 Minotr:  Closed shell wavefunction.
          IDoAtm=11111111111111111111111111
 NEqPCM:  Using equilibrium solvation (IEInf=0, Eps=  78.3553, EpsInf=   1.7778)
          Direct CPHF calculation.
          Differentiating once with respect to nuclear coordinates.
          Requested convergence is 1.0D-08 RMS, and 1.0D-07 maximum.
          Secondary convergence is 1.0D-12 RMS, and 1.0D-12 maximum.
          NewPWx=T KeepS1=F KeepF1=F KeepIn=T MapXYZ=F SortEE=F KeepMc=T.
        18123 words used for storage of precomputed grid.
 Two-electron integrals replicated using symmetry.
          MDV=    8589934592 using IRadAn=   99302.
          Solving linear equations simultaneously, MaxMat=     384.
 FoF2E skips out because all densities are zero.
 CalDSu exits because no D1Ps are significant.
 FoFJK:  IHMeth= 1 ICntrl=       0 DoSepK=F KAlg= 0 I1Cent=           0 FoldK=F
 IRaf= 790000000 NMat=      78 IRICut=     195 DoRegI=T DoRafI=T ISym2E= 2 IDoP0=3 IntGTp=3.
          There are    81 degrees of freedom in the 1st order CPHF.  IDoFFX=6 NUNeed=     0.
     75 vectors produced by pass  0 Test12= 4.57D-14 1.23D-09 XBig12= 1.48D-01 1.83D-01.
 AX will form    75 AO Fock derivatives at one time.
     75 vectors produced by pass  1 Test12= 4.57D-14 1.23D-09 XBig12= 2.73D-02 3.63D-02.
     75 vectors produced by pass  2 Test12= 4.57D-14 1.23D-09 XBig12= 6.52D-04 3.11D-03.
     75 vectors produced by pass  3 Test12= 4.57D-14 1.23D-09 XBig12= 5.88D-06 3.31D-04.
     75 vectors produced by pass  4 Test12= 4.57D-14 1.23D-09 XBig12= 1.91D-08 1.27D-05.
     75 vectors produced by pass  5 Test12= 4.57D-14 1.23D-09 XBig12= 4.44D-11 7.11D-07.
     45 vectors produced by pass  6 Test12= 4.57D-14 1.23D-09 XBig12= 1.23D-13 3.05D-08.
      4 vectors produced by pass  7 Test12= 4.57D-14 1.23D-09 XBig12= 6.01D-16 2.38D-09.
      4 vectors produced by pass  8 Test12= 4.57D-14 1.23D-09 XBig12= 1.04D-15 2.80D-09.
      4 vectors produced by pass  9 Test12= 4.57D-14 1.23D-09 XBig12= 1.84D-15 4.59D-09.
      4 vectors produced by pass 10 Test12= 4.57D-14 1.23D-09 XBig12= 8.86D-15 7.22D-09.
      4 vectors produced by pass 11 Test12= 4.57D-14 1.23D-09 XBig12= 9.15D-15 8.77D-09.
      4 vectors produced by pass 12 Test12= 4.57D-14 1.23D-09 XBig12= 6.63D-15 6.85D-09.
      3 vectors produced by pass 13 Test12= 4.57D-14 1.23D-09 XBig12= 4.13D-15 5.63D-09.
      3 vectors produced by pass 14 Test12= 4.57D-14 1.23D-09 XBig12= 2.91D-15 4.41D-09.
      3 vectors produced by pass 15 Test12= 4.57D-14 1.23D-09 XBig12= 1.92D-15 3.06D-09.
      1 vectors produced by pass 16 Test12= 4.57D-14 1.23D-09 XBig12= 9.88D-16 2.45D-09.
 InvSVY:  IOpt=1 It=  1 EMax= 4.44D-16
 Solved reduced A of dimension   529 with    81 vectors.
 End of Minotr F.D. properties file   721 does not exist.
 End of Minotr F.D. properties file   722 does not exist.
 End of Minotr F.D. properties file   788 does not exist.
 Leave Link 1002 at Wed Aug 28 21:56:33 2024, MaxMem=  8589934592 cpu:           13069.9 elap:             545.0
 (Enter /share/apps/g16.b01_avx2/g16/l601.exe)
 Copying SCF densities to generalized density rwf, IOpCl= 0 IROHF=0.

 **********************************************************************

            Population analysis using the SCF Density.

 **********************************************************************

 Orbital symmetries:
       Occupied  (A) (A) (A) (A) (A) (A) (A) (A) (A) (A) (A) (A)
                 (A) (A) (A) (A) (A) (A) (A) (A) (A) (A) (A) (A)
                 (A) (A) (A) (A) (A) (A) (A) (A) (A) (A) (A) (A)
                 (A) (A) (A) (A) (A) (A) (A) (A) (A) (A) (A) (A)
                 (A) (A) (A) (A) (A) (A) (A) (A) (A) (A) (A) (A)
                 (A) (A) (A) (A) (A) (A) (A) (A) (A)
       Virtual   (A) (A) (A) (A) (A) (A) (A) (A) (A) (A) (A) (A)
                 (A) (A) (A) (A) (A) (A) (A) (A) (A) (A) (A) (A)
                 (A) (A) (A) (A) (A) (A) (A) (A) (A) (A) (A) (A)
                 (A) (A) (A) (A) (A) (A) (A) (A) (A) (A) (A) (A)
                 (A) (A) (A) (A) (A) (A) (A) (A) (A) (A) (A) (A)
                 (A) (A) (A) (A) (A) (A) (A) (A) (A) (A) (A) (A)
                 (A) (A) (A) (A) (A) (A) (A) (A) (A) (A) (A) (A)
                 (A) (A) (A) (A) (A) (A) (A) (A) (A) (A) (A) (A)
                 (A) (A) (A) (A) (A) (A) (A) (A) (A) (A) (A) (A)
                 (A) (A) (A) (A) (A) (A) (A) (A) (A) (A) (A) (A)
                 (A) (A) (A) (A) (A) (A) (A) (A) (A) (A) (A) (A)
                 (A) (A) (A) (A) (A) (A) (A) (A) (A) (A) (A) (A)
                 (A) (A) (A) (A) (A) (A) (A) (A) (A) (A) (A) (A)
                 (A) (A) (A) (A) (A) (A) (A) (A) (A) (A) (A) (A)
                 (A) (A) (A) (A) (A) (A) (A) (A) (A) (A) (A) (A)
                 (A) (A) (A) (A) (A) (A) (A) (A) (A) (A) (A) (A)
                 (A) (A) (A) (A) (A) (A) (A) (A) (A) (A) (A) (A)
                 (A) (A) (A) (A) (A) (A) (A) (A) (A) (A) (A) (A)
                 (A) (A) (A) (A) (A) (A) (A) (A) (A) (A) (A) (A)
                 (A) (A) (A) (A) (A) (A) (A) (A) (A) (A) (A) (A)
                 (A) (A) (A) (A) (A) (A) (A) (A) (A) (A) (A) (A)
                 (A) (A) (A) (A) (A) (A) (A) (A) (A) (A) (A) (A)
                 (A) (A) (A) (A) (A) (A) (A) (A) (A) (A) (A) (A)
                 (A) (A) (A) (A) (A) (A) (A) (A) (A) (A) (A) (A)
                 (A) (A) (A) (A) (A) (A) (A) (A) (A) (A) (A) (A)
                 (A) (A) (A) (A) (A) (A) (A) (A) (A) (A) (A) (A)
                 (A) (A) (A) (A) (A) (A) (A) (A) (A) (A) (A) (A)
                 (A) (A) (A) (A) (A) (A) (A) (A) (A) (A) (A) (A)
                 (A) (A) (A) (A) (A) (A) (A) (A) (A) (A) (A) (A)
                 (A) (A) (A) (A) (A) (A) (A) (A) (A) (A) (A) (A)
                 (A) (A) (A) (A) (A) (A) (A) (A) (A) (A) (A) (A)
                 (A) (A) (A) (A) (A) (A) (A) (A) (A) (A) (A) (A)
                 (A) (A) (A) (A) (A) (A) (A) (A) (A) (A) (A) (A)
                 (A) (A) (A) (A) (A) (A) (A) (A) (A) (A) (A) (A)
                 (A) (A) (A) (A) (A) (A) (A) (A) (A) (A) (A) (A)
                 (A) (A) (A) (A) (A) (A) (A) (A) (A) (A) (A) (A)
                 (A) (A) (A) (A) (A) (A) (A) (A) (A) (A) (A) (A)
                 (A) (A) (A) (A) (A) (A) (A) (A) (A) (A) (A) (A)
                 (A) (A) (A) (A) (A) (A) (A) (A) (A) (A) (A) (A)
                 (A) (A) (A) (A) (A) (A) (A) (A) (A) (A) (A) (A)
                 (A) (A) (A) (A) (A) (A) (A) (A) (A) (A) (A) (A)
                 (A) (A) (A) (A) (A) (A) (A) (A) (A) (A) (A) (A)
                 (A) (A) (A) (A) (A) (A) (A) (A) (A) (A) (A) (A)
                 (A) (A) (A) (A) (A) (A) (A) (A) (A) (A) (A) (A)
                 (A) (A) (A) (A) (A) (A) (A) (A) (A)
 The electronic state is 1-A.
 Alpha  occ. eigenvalues --  -24.81687 -24.81563 -24.81558 -24.81468 -24.80647
 Alpha  occ. eigenvalues --  -19.24040 -19.20975 -19.15906 -14.45167 -10.36378
 Alpha  occ. eigenvalues --  -10.34209 -10.34022 -10.33923 -10.33661 -10.33461
 Alpha  occ. eigenvalues --  -10.31119 -10.27380 -10.25957  -1.30870  -1.30170
 Alpha  occ. eigenvalues --   -1.29488  -1.28739  -1.28308  -1.12077  -1.05505
 Alpha  occ. eigenvalues --   -1.03427  -0.97398  -0.92668  -0.80923  -0.80810
 Alpha  occ. eigenvalues --   -0.75845  -0.72310  -0.69486  -0.69199  -0.63322
 Alpha  occ. eigenvalues --   -0.62499  -0.61926  -0.59105  -0.57456  -0.57138
 Alpha  occ. eigenvalues --   -0.56647  -0.56116  -0.55394  -0.54730  -0.53012
 Alpha  occ. eigenvalues --   -0.52606  -0.51645  -0.49833  -0.49500  -0.49321
 Alpha  occ. eigenvalues --   -0.48350  -0.48096  -0.47305  -0.46926  -0.45673
 Alpha  occ. eigenvalues --   -0.44383  -0.43572  -0.42181  -0.41489  -0.41236
 Alpha  occ. eigenvalues --   -0.40372  -0.37048  -0.36809  -0.33114  -0.30566
 Alpha  occ. eigenvalues --   -0.29188  -0.27243  -0.27121  -0.26570
 Alpha virt. eigenvalues --   -0.01921  -0.01234  -0.01021   0.03725   0.03923
 Alpha virt. eigenvalues --    0.07099   0.07819   0.08712   0.09207   0.10472
 Alpha virt. eigenvalues --    0.11587   0.12229   0.12801   0.13945   0.14067
 Alpha virt. eigenvalues --    0.15643   0.16939   0.17670   0.17988   0.18348
 Alpha virt. eigenvalues --    0.19009   0.19949   0.20319   0.21213   0.21292
 Alpha virt. eigenvalues --    0.23632   0.23927   0.24822   0.25422   0.26561
 Alpha virt. eigenvalues --    0.27145   0.28678   0.28986   0.29517   0.29798
 Alpha virt. eigenvalues --    0.30823   0.31155   0.31858   0.32527   0.33022
 Alpha virt. eigenvalues --    0.34953   0.35322   0.36051   0.36365   0.37681
 Alpha virt. eigenvalues --    0.38204   0.39321   0.39960   0.39969   0.40322
 Alpha virt. eigenvalues --    0.40982   0.41255   0.41576   0.42497   0.43436
 Alpha virt. eigenvalues --    0.43698   0.43980   0.44518   0.44889   0.45305
 Alpha virt. eigenvalues --    0.45942   0.47009   0.47493   0.47547   0.48746
 Alpha virt. eigenvalues --    0.49700   0.50090   0.52352   0.53157   0.53509
 Alpha virt. eigenvalues --    0.54184   0.54956   0.55679   0.57340   0.58140
 Alpha virt. eigenvalues --    0.58616   0.60051   0.61873   0.62535   0.62991
 Alpha virt. eigenvalues --    0.63647   0.64826   0.65233   0.66058   0.67598
 Alpha virt. eigenvalues --    0.68639   0.70428   0.71130   0.71637   0.73221
 Alpha virt. eigenvalues --    0.73550   0.74681   0.74805   0.76271   0.77856
 Alpha virt. eigenvalues --    0.78527   0.79923   0.81486   0.82110   0.82470
 Alpha virt. eigenvalues --    0.84455   0.84635   0.84699   0.85818   0.86050
 Alpha virt. eigenvalues --    0.86823   0.87508   0.88023   0.88539   0.90214
 Alpha virt. eigenvalues --    0.90573   0.92314   0.94669   0.94722   0.95263
 Alpha virt. eigenvalues --    0.96756   0.98164   0.99228   0.99568   1.00511
 Alpha virt. eigenvalues --    1.01423   1.02370   1.03409   1.03875   1.04822
 Alpha virt. eigenvalues --    1.05692   1.08443   1.09394   1.09750   1.11189
 Alpha virt. eigenvalues --    1.12623   1.13524   1.15329   1.16152   1.17419
 Alpha virt. eigenvalues --    1.18172   1.19427   1.20862   1.21139   1.23765
 Alpha virt. eigenvalues --    1.27629   1.27932   1.30207   1.30716   1.32143
 Alpha virt. eigenvalues --    1.33138   1.34968   1.36510   1.38019   1.38744
 Alpha virt. eigenvalues --    1.39574   1.40018   1.43358   1.44931   1.45251
 Alpha virt. eigenvalues --    1.45843   1.46898   1.47682   1.48679   1.50385
 Alpha virt. eigenvalues --    1.51586   1.53424   1.54899   1.55012   1.56147
 Alpha virt. eigenvalues --    1.57239   1.58502   1.59468   1.61528   1.62049
 Alpha virt. eigenvalues --    1.62367   1.64639   1.66349   1.69099   1.71862
 Alpha virt. eigenvalues --    1.72384   1.73004   1.73449   1.74619   1.75952
 Alpha virt. eigenvalues --    1.78740   1.79662   1.79982   1.82206   1.82851
 Alpha virt. eigenvalues --    1.83267   1.84643   1.86109   1.86940   1.89769
 Alpha virt. eigenvalues --    1.90185   1.93938   1.94888   1.95103   1.95896
 Alpha virt. eigenvalues --    1.96696   1.96851   1.97951   1.98851   2.00605
 Alpha virt. eigenvalues --    2.01293   2.03321   2.03825   2.04549   2.04971
 Alpha virt. eigenvalues --    2.06632   2.07320   2.08329   2.08672   2.10356
 Alpha virt. eigenvalues --    2.12478   2.15410   2.15850   2.17261   2.17877
 Alpha virt. eigenvalues --    2.18701   2.20474   2.21766   2.21785   2.22425
 Alpha virt. eigenvalues --    2.24148   2.26735   2.27485   2.29265   2.30926
 Alpha virt. eigenvalues --    2.31298   2.32399   2.33840   2.34724   2.35441
 Alpha virt. eigenvalues --    2.36009   2.36751   2.37959   2.39074   2.42576
 Alpha virt. eigenvalues --    2.44161   2.44813   2.47091   2.47551   2.50065
 Alpha virt. eigenvalues --    2.50488   2.51472   2.54985   2.55922   2.57295
 Alpha virt. eigenvalues --    2.57462   2.59030   2.59637   2.60297   2.62179
 Alpha virt. eigenvalues --    2.62637   2.63250   2.63857   2.64621   2.66276
 Alpha virt. eigenvalues --    2.67610   2.68466   2.70704   2.72242   2.73568
 Alpha virt. eigenvalues --    2.74549   2.77200   2.77805   2.79705   2.80394
 Alpha virt. eigenvalues --    2.81023   2.81718   2.82515   2.83603   2.84308
 Alpha virt. eigenvalues --    2.85303   2.86094   2.87131   2.88848   2.89092
 Alpha virt. eigenvalues --    2.91219   2.91559   2.92236   2.92888   2.93846
 Alpha virt. eigenvalues --    2.94726   2.95809   2.97249   2.97985   3.00347
 Alpha virt. eigenvalues --    3.01209   3.02229   3.02979   3.03889   3.05105
 Alpha virt. eigenvalues --    3.06156   3.07463   3.08461   3.09900   3.10809
 Alpha virt. eigenvalues --    3.12039   3.12784   3.13796   3.14759   3.15144
 Alpha virt. eigenvalues --    3.17019   3.17499   3.19084   3.19824   3.20222
 Alpha virt. eigenvalues --    3.20701   3.21394   3.22353   3.23336   3.23864
 Alpha virt. eigenvalues --    3.25050   3.26020   3.28245   3.30140   3.31260
 Alpha virt. eigenvalues --    3.32350   3.33898   3.34830   3.36707   3.37677
 Alpha virt. eigenvalues --    3.39260   3.40846   3.41758   3.42754   3.43413
 Alpha virt. eigenvalues --    3.44155   3.45207   3.45607   3.46201   3.47495
 Alpha virt. eigenvalues --    3.49155   3.49912   3.50573   3.51456   3.52542
 Alpha virt. eigenvalues --    3.54371   3.56716   3.57327   3.59148   3.60408
 Alpha virt. eigenvalues --    3.61843   3.63578   3.64389   3.68330   3.70015
 Alpha virt. eigenvalues --    3.70630   3.71658   3.74437   3.76739   3.77511
 Alpha virt. eigenvalues --    3.78813   3.81026   3.82339   3.83118   3.86036
 Alpha virt. eigenvalues --    3.87559   3.88264   3.89684   3.93571   3.94831
 Alpha virt. eigenvalues --    3.97870   3.99864   4.01296   4.01480   4.05202
 Alpha virt. eigenvalues --    4.06256   4.07315   4.09589   4.10565   4.13189
 Alpha virt. eigenvalues --    4.14031   4.14339   4.16410   4.17244   4.18785
 Alpha virt. eigenvalues --    4.21292   4.21585   4.23114   4.23696   4.28506
 Alpha virt. eigenvalues --    4.29452   4.31918   4.35652   4.38231   4.39263
 Alpha virt. eigenvalues --    4.40024   4.42765   4.44604   4.45653   4.49695
 Alpha virt. eigenvalues --    4.52613   4.56486   4.57012   4.61108   4.67182
 Alpha virt. eigenvalues --    4.70073   4.72003   4.74585   4.79364   4.83154
 Alpha virt. eigenvalues --    4.84929   4.86696   4.87830   4.89068   4.91100
 Alpha virt. eigenvalues --    4.92131   4.95501   5.02353   5.07175   5.09142
 Alpha virt. eigenvalues --    5.14472   5.15608   5.21832   5.25030   5.26205
 Alpha virt. eigenvalues --    5.27966   5.31912   5.35362   5.36862   5.38048
 Alpha virt. eigenvalues --    5.42124   5.44179   5.46303   5.48397   5.49659
 Alpha virt. eigenvalues --    5.54877   5.56809   5.58008   5.65155   5.69762
 Alpha virt. eigenvalues --    5.73606   5.78541   5.79386   5.84583   5.87795
 Alpha virt. eigenvalues --    5.88758   5.95118   6.08237   6.22488   6.29823
 Alpha virt. eigenvalues --    6.32995   6.38951   6.41628   6.46226   6.50312
 Alpha virt. eigenvalues --    6.52847   6.60545   6.71452   6.74559   6.75613
 Alpha virt. eigenvalues --    6.80112   6.84809   6.85134   6.85465   6.85683
 Alpha virt. eigenvalues --    6.86159   6.86447   6.86945   6.87291   6.87377
 Alpha virt. eigenvalues --    6.88932   6.91613   6.94145   6.96409   6.97881
 Alpha virt. eigenvalues --    7.00905   7.01007   7.01551   7.02967   7.06934
 Alpha virt. eigenvalues --    7.07078   7.09315   7.10038   7.13701   7.14764
 Alpha virt. eigenvalues --    7.17199   7.17727   7.19608   7.20905   7.24243
 Alpha virt. eigenvalues --    7.27012   7.29638   7.29806   7.31796   7.36465
 Alpha virt. eigenvalues --    7.37155   7.41886   7.43948   7.47060   7.50895
 Alpha virt. eigenvalues --    7.67162   7.67856   7.75793   8.09321   8.30843
 Alpha virt. eigenvalues --    8.33363   8.35852   8.37959   8.42933   8.43332
 Alpha virt. eigenvalues --    8.54102   8.56623   8.59035   8.69506   8.72981
 Alpha virt. eigenvalues --    8.76551   8.77468   8.80172   8.81046   8.87540
 Alpha virt. eigenvalues --    8.89524   8.93101   8.94585   9.01967   9.03147
 Alpha virt. eigenvalues --    9.07559   9.09851   9.12830   9.40266  22.27686
 Alpha virt. eigenvalues --   22.43993  22.54690  22.97571  22.98430  23.09233
 Alpha virt. eigenvalues --   23.13956  23.14820  23.75528  32.22301  43.92658
 Alpha virt. eigenvalues --   44.21743  44.59651  57.20407  57.40209  57.46471
 Alpha virt. eigenvalues --   57.53927  57.65245
          Condensed to atoms (all electrons):
               1          2          3          4          5          6
     1  H    0.425184   0.004392  -0.008980   0.344098  -0.021453  -0.018058
     2  O    0.004392   8.014152   0.676474  -0.089836   0.004158  -0.010850
     3  C   -0.008980   0.676474   4.863731   0.072715  -0.000698  -0.026063
     4  N    0.344098  -0.089836   0.072715   6.400301   0.345259   0.276138
     5  H   -0.021453   0.004158  -0.000698   0.345259   0.418782  -0.022591
     6  C   -0.018058  -0.010850  -0.026063   0.276138  -0.022591   4.897839
     7  H    0.006021   0.000079  -0.005514  -0.028688  -0.007023   0.412481
     8  H   -0.002440   0.020011   0.002135  -0.046081   0.007188   0.403645
     9  H   -0.008443  -0.000337   0.003201  -0.021058  -0.003033   0.403554
    10  C    0.004928  -0.065414   0.210191  -0.007764  -0.004435   0.006776
    11  H    0.000127   0.000115  -0.046461  -0.000799  -0.000222   0.005764
    12  H   -0.000438   0.005164  -0.048479   0.003082   0.001248  -0.001375
    13  O   -0.001155  -0.091549   0.208797  -0.037792   0.002754   0.003866
    14  C   -0.004474  -0.023168  -0.127918   0.028884  -0.001048  -0.000370
    15  C    0.000322   0.028668   0.007523  -0.017662   0.001651   0.000877
    16  C    0.000413   0.028360  -0.030851   0.005502  -0.000324  -0.000095
    17  C   -0.001102  -0.003281   0.002723  -0.000161   0.000057   0.000083
    18  C   -0.000013  -0.006071  -0.000716   0.000409  -0.000022  -0.000021
    19  C    0.000055   0.000417   0.000376  -0.000173   0.000005   0.000002
    20  F    0.011011  -0.000417  -0.000761  -0.002819   0.000158  -0.000121
    21  F   -0.000001  -0.001628   0.000691  -0.000072   0.000000   0.000002
    22  F   -0.000018  -0.000001   0.000030  -0.000001  -0.000000   0.000000
    23  F   -0.000000  -0.000000   0.000024  -0.000000   0.000000   0.000000
    24  F    0.000000  -0.000000  -0.000001  -0.000000   0.000000  -0.000000
    25  O   -0.000123  -0.000601  -0.086865   0.001951  -0.000047  -0.000582
    26  H    0.000020  -0.000550   0.014191  -0.000455  -0.000001  -0.000011
               7          8          9         10         11         12
     1  H    0.006021  -0.002440  -0.008443   0.004928   0.000127  -0.000438
     2  O    0.000079   0.020011  -0.000337  -0.065414   0.000115   0.005164
     3  C   -0.005514   0.002135   0.003201   0.210191  -0.046461  -0.048479
     4  N   -0.028688  -0.046081  -0.021058  -0.007764  -0.000799   0.003082
     5  H   -0.007023   0.007188  -0.003033  -0.004435  -0.000222   0.001248
     6  C    0.412481   0.403645   0.403554   0.006776   0.005764  -0.001375
     7  H    0.495835  -0.021580  -0.019025   0.002729  -0.001114  -0.000194
     8  H   -0.021580   0.502528  -0.022079  -0.002671  -0.000474   0.000112
     9  H   -0.019025  -0.022079   0.500414  -0.000251   0.000465  -0.000004
    10  C    0.002729  -0.002671  -0.000251   4.886484   0.431289   0.416352
    11  H   -0.001114  -0.000474   0.000465   0.431289   0.574246  -0.049830
    12  H   -0.000194   0.000112  -0.000004   0.416352  -0.049830   0.606547
    13  O   -0.000064   0.000869  -0.000038  -0.052545   0.005477   0.000266
    14  C    0.000090  -0.000900   0.000129  -0.001176   0.000684  -0.002294
    15  C    0.000004   0.000331  -0.000128   0.001616   0.000062  -0.001638
    16  C   -0.000001  -0.000179   0.000007  -0.000047   0.000156   0.000145
    17  C   -0.000002   0.000010  -0.000006  -0.000308  -0.000009   0.000060
    18  C   -0.000001   0.000002   0.000002   0.000770   0.000035   0.000050
    19  C    0.000000   0.000006  -0.000001  -0.000111   0.000001  -0.000014
    20  F   -0.000010   0.000012   0.000016  -0.000031  -0.000000   0.000006
    21  F    0.000000   0.000001  -0.000000   0.002220  -0.000031  -0.000151
    22  F    0.000000  -0.000000   0.000000   0.000000   0.000000  -0.000000
    23  F   -0.000000  -0.000000  -0.000000  -0.000004   0.000000   0.000000
    24  F   -0.000000  -0.000000   0.000000   0.000000  -0.000000  -0.000000
    25  O   -0.000025   0.000069  -0.000006   0.345806  -0.045067  -0.048410
    26  H    0.000023   0.000007  -0.000004  -0.032179  -0.009221  -0.000945
              13         14         15         16         17         18
     1  H   -0.001155  -0.004474   0.000322   0.000413  -0.001102  -0.000013
     2  O   -0.091549  -0.023168   0.028668   0.028360  -0.003281  -0.006071
     3  C    0.208797  -0.127918   0.007523  -0.030851   0.002723  -0.000716
     4  N   -0.037792   0.028884  -0.017662   0.005502  -0.000161   0.000409
     5  H    0.002754  -0.001048   0.001651  -0.000324   0.000057  -0.000022
     6  C    0.003866  -0.000370   0.000877  -0.000095   0.000083  -0.000021
     7  H   -0.000064   0.000090   0.000004  -0.000001  -0.000002  -0.000001
     8  H    0.000869  -0.000900   0.000331  -0.000179   0.000010   0.000002
     9  H   -0.000038   0.000129  -0.000128   0.000007  -0.000006   0.000002
    10  C   -0.052545  -0.001176   0.001616  -0.000047  -0.000308   0.000770
    11  H    0.005477   0.000684   0.000062   0.000156  -0.000009   0.000035
    12  H    0.000266  -0.002294  -0.001638   0.000145   0.000060   0.000050
    13  O    8.048377   0.276955  -0.033206  -0.031920   0.007805   0.009920
    14  C    0.276955   5.460762   0.130785   0.216664   0.018045  -0.016583
    15  C   -0.033206   0.130785   5.286352   0.032817   0.273758  -0.018880
    16  C   -0.031920   0.216664   0.032817   5.118226  -0.004006   0.315649
    17  C    0.007805   0.018045   0.273758  -0.004006   4.997312  -0.045291
    18  C    0.009920  -0.016583  -0.018880   0.315649  -0.045291   5.017180
    19  C    0.001327   0.002106  -0.059287  -0.075669   0.387345   0.377597
    20  F   -0.001259  -0.040768   0.247982   0.005356  -0.030915  -0.000401
    21  F    0.002784  -0.072176   0.005384   0.304015  -0.001206  -0.038405
    22  F   -0.000056   0.009483  -0.054840  -0.001282   0.294534   0.007139
    23  F   -0.000062   0.009713  -0.000981  -0.052952   0.007364   0.291175
    24  F   -0.000001  -0.001117   0.008993   0.008294  -0.046307  -0.045312
    25  O    0.000679   0.000033  -0.000129   0.004367   0.000006   0.000863
    26  H   -0.000542   0.000129   0.000035  -0.000249  -0.000001  -0.000050
              19         20         21         22         23         24
     1  H    0.000055   0.011011  -0.000001  -0.000018  -0.000000   0.000000
     2  O    0.000417  -0.000417  -0.001628  -0.000001  -0.000000  -0.000000
     3  C    0.000376  -0.000761   0.000691   0.000030   0.000024  -0.000001
     4  N   -0.000173  -0.002819  -0.000072  -0.000001  -0.000000  -0.000000
     5  H    0.000005   0.000158   0.000000  -0.000000   0.000000   0.000000
     6  C    0.000002  -0.000121   0.000002   0.000000   0.000000  -0.000000
     7  H    0.000000  -0.000010   0.000000   0.000000  -0.000000  -0.000000
     8  H    0.000006   0.000012   0.000001  -0.000000  -0.000000  -0.000000
     9  H   -0.000001   0.000016  -0.000000   0.000000  -0.000000   0.000000
    10  C   -0.000111  -0.000031   0.002220   0.000000  -0.000004   0.000000
    11  H    0.000001  -0.000000  -0.000031   0.000000   0.000000  -0.000000
    12  H   -0.000014   0.000006  -0.000151  -0.000000   0.000000  -0.000000
    13  O    0.001327  -0.001259   0.002784  -0.000056  -0.000062  -0.000001
    14  C    0.002106  -0.040768  -0.072176   0.009483   0.009713  -0.001117
    15  C   -0.059287   0.247982   0.005384  -0.054840  -0.000981   0.008993
    16  C   -0.075669   0.005356   0.304015  -0.001282  -0.052952   0.008294
    17  C    0.387345  -0.030915  -0.001206   0.294534   0.007364  -0.046307
    18  C    0.377597  -0.000401  -0.038405   0.007139   0.291175  -0.045312
    19  C    4.998168   0.006674   0.007515  -0.045377  -0.045430   0.284799
    20  F    0.006674   8.993778  -0.000031   0.000644   0.000000  -0.000027
    21  F    0.007515  -0.000031   8.961027   0.000000   0.000447  -0.000027
    22  F   -0.045377   0.000644   0.000000   8.962649  -0.000028   0.001157
    23  F   -0.045430   0.000000   0.000447  -0.000028   8.964198   0.001103
    24  F    0.284799  -0.000027  -0.000027   0.001157   0.001103   8.960637
    25  O   -0.000025   0.000000  -0.001925   0.000000  -0.000000   0.000000
    26  H    0.000001  -0.000000   0.000135  -0.000000  -0.000000   0.000000
              25         26
     1  H   -0.000123   0.000020
     2  O   -0.000601  -0.000550
     3  C   -0.086865   0.014191
     4  N    0.001951  -0.000455
     5  H   -0.000047  -0.000001
     6  C   -0.000582  -0.000011
     7  H   -0.000025   0.000023
     8  H    0.000069   0.000007
     9  H   -0.000006  -0.000004
    10  C    0.345806  -0.032179
    11  H   -0.045067  -0.009221
    12  H   -0.048410  -0.000945
    13  O    0.000679  -0.000542
    14  C    0.000033   0.000129
    15  C   -0.000129   0.000035
    16  C    0.004367  -0.000249
    17  C    0.000006  -0.000001
    18  C    0.000863  -0.000050
    19  C   -0.000025   0.000001
    20  F    0.000000  -0.000000
    21  F   -0.001925   0.000135
    22  F    0.000000  -0.000000
    23  F   -0.000000  -0.000000
    24  F    0.000000   0.000000
    25  O    8.012830   0.295779
    26  H    0.295779   0.398596
 Mulliken charges:
               1
     1  H    0.270129
     2  O   -0.488285
     3  C    0.320504
     4  N   -0.224977
     5  H    0.279637
     6  C   -0.330889
     7  H    0.165977
     8  H    0.159479
     9  H    0.166625
    10  C   -0.142225
    11  H    0.134805
    12  H    0.120742
    13  O   -0.319686
    14  C    0.137531
    15  C    0.159589
    16  C    0.157601
    17  C    0.143496
    18  C    0.150975
    19  C    0.159694
    20  F   -0.188075
    21  F   -0.168568
    22  F   -0.174034
    23  F   -0.174567
    24  F   -0.172191
    25  O   -0.478579
    26  H    0.335293
 Sum of Mulliken charges =  -0.00000
 Mulliken charges with hydrogens summed into heavy atoms:
               1
     2  O   -0.488285
     3  C    0.320504
     4  N    0.324788
     6  C    0.161192
    10  C    0.113322
    13  O   -0.319686
    14  C    0.137531
    15  C    0.159589
    16  C    0.157601
    17  C    0.143496
    18  C    0.150975
    19  C    0.159694
    20  F   -0.188075
    21  F   -0.168568
    22  F   -0.174034
    23  F   -0.174567
    24  F   -0.172191
    25  O   -0.143285
 APT charges:
               1
     1  H    0.184561
     2  O   -0.454374
     3  C    0.257724
     4  N   -0.479679
     5  H    0.653782
     6  C   -1.408132
     7  H    0.700869
     8  H    0.199883
     9  H    0.682600
    10  C   -1.100727
    11  H    0.683652
    12  H    0.430157
    13  O   -0.201052
    14  C   -0.136300
    15  C   -0.144489
    16  C   -0.179239
    17  C   -0.016104
    18  C   -0.023874
    19  C    0.042678
    20  F   -0.040739
    21  F   -0.015418
    22  F    0.129037
    23  F    0.114865
    24  F    0.203428
    25  O   -1.251116
    26  H    1.168007
 Sum of APT charges =  -0.00000
 APT charges with hydrogens summed into heavy atoms:
               1
     2  O   -0.454374
     3  C    0.257724
     4  N    0.358663
     6  C    0.175220
    10  C    0.013082
    13  O   -0.201052
    14  C   -0.136300
    15  C   -0.144489
    16  C   -0.179239
    17  C   -0.016104
    18  C   -0.023874
    19  C    0.042678
    20  F   -0.040739
    21  F   -0.015418
    22  F    0.129037
    23  F    0.114865
    24  F    0.203428
    25  O   -0.083109
 Electronic spatial extent (au):  <R**2>=           4652.6331
 Charge=              0.0000 electrons
 Dipole moment (field-independent basis, Debye):
    X=              8.2683    Y=             -5.2852    Z=             -2.5595  Tot=             10.1415
 Quadrupole moment (field-independent basis, Debye-Ang):
   XX=            -70.6890   YY=            -96.7210   ZZ=           -102.3538
   XY=             -9.6478   XZ=             -3.5509   YZ=             -3.9056
 Traceless Quadrupole moment (field-independent basis, Debye-Ang):
   XX=             19.2323   YY=             -6.7998   ZZ=            -12.4325
   XY=             -9.6478   XZ=             -3.5509   YZ=             -3.9056
 Octapole moment (field-independent basis, Debye-Ang**2):
  XXX=            159.7558  YYY=             -9.4952  ZZZ=             -6.9421  XYY=             47.0007
  XXY=             -9.6002  XXZ=            -18.4378  XZZ=            -12.8765  YZZ=             -5.2186
  YYZ=              0.2007  XYZ=             -8.0491
 Hexadecapole moment (field-independent basis, Debye-Ang**3):
 XXXX=          -3142.0971 YYYY=          -1353.3550 ZZZZ=           -319.2050 XXXY=             23.1906
 XXXZ=            -24.7508 YYYX=             20.2440 YYYZ=            -12.7453 ZZZX=            -37.0915
 ZZZY=             10.9506 XXYY=           -686.6108 XXZZ=           -634.3324 YYZZ=           -278.7173
 XXYZ=            -38.5342 YYXZ=            -12.6384 ZZXY=            -10.7458
 N-N= 1.485505568436D+03 E-N=-5.631632956163D+03  KE= 1.122401292465D+03
  Exact polarizability:   0.000   0.000   0.000   0.000   0.000   0.000
 Approx polarizability: 208.992  -2.583 206.391 -18.686  11.366 137.205
 No NMR shielding tensors so no spin-rotation constants.
 Leave Link  601 at Wed Aug 28 21:56:34 2024, MaxMem=  8589934592 cpu:               5.8 elap:               0.3
 (Enter /share/apps/g16.b01_avx2/g16/l701.exe)
 ... and contract with generalized density number  0.
 Compute integral second derivatives.
 R6Disp: Adding Grimme-D3 dispersion energy 2nd derivatives to the Hessian.
   1 Symmetry operations used in ECPInt.
[...]
 00003956,0.00001555,-0.00003655,-0.00001882,0.00004388,0.00000674,0.00
 009223,-0.00005046,-0.00008632,0.00026178,-0.00043124,-0.00034357,0.00
 019948,0.00017743,0.00003247,-0.00003983,-0.00001468,0.00002280,0.0049
 4404,0.00044918,0.00057224,-0.00389273,0.01247904,-0.00199772,-0.03842
 295,0.01480165,-0.00963035,-0.00096561,-0.03600465,-0.00327497,-0.1954
 7507,0.16377346,-0.02412734,-0.13331115,-0.12218457,-0.03088334,0.6950
 7567,0.00004307,0.00020933,-0.00005917,0.00015415,-0.00004747,-0.00013
 453,-0.00050393,0.00065550,0.00029192,0.00002188,-0.00020018,0.0000265
 4,0.00000325,-0.00000377,-0.00001520,-0.00000762,-0.00001372,0.0000255
 7,0.00000325,0.00000140,0.00000014,-0.00001023,0.00000976,-0.00000199,
 0.00000943,0.00000012,-0.00001213,-0.00003381,0.00001214,-0.00002997,0
 .00001580,-0.00000580,-0.00000740,-0.00000979,-0.00000427,0.00000535,0
 .00021676,0.00146318,0.00020073,0.01217857,-0.07526073,-0.00369758,0.0
 7442257,0.05977169,0.02618749,-0.09464168,0.02582168,-0.02457939,0.062
 04389,-0.25200220,0.00117116,-0.02039280,-0.30947057,-0.02717955,-0.01
 330890,0.73190384,-0.00005479,0.00009406,0.00000708,-0.00030523,0.0000
 2128,-0.00071036,-0.00061046,0.00007186,0.00195588,0.00019860,-0.00015
 727,-0.00008184,-0.00000378,0.00000662,-0.00002949,-0.00001289,-0.0000
 5140,0.00009365,0.00001056,0.00000193,-0.00000935,-0.00000816,0.000017
 53,0.00000046,0.00002647,-0.00000980,-0.00002603,0.00021546,-0.0001571
 3,-0.00024458,0.00007823,0.00008172,0.00002280,-0.00001248,-0.00000561
 ,0.00000622,0.00285103,0.00055368,-0.00293449,-0.00266017,-0.00360607,
 0.00609745,-0.00491710,0.00897624,0.00065371,-0.00880359,-0.00787104,-
 0.00222394,-0.03246496,0.02944684,-0.06661414,-0.02204692,-0.05503778,
 -0.07060625,0.15821431,0.04780330,0.17133793,0.00209172,-0.00106233,-0
 .00045837,0.00100142,-0.00075993,-0.00012591,-0.00387539,0.00354159,0.
 00145506,-0.00210371,-0.00134845,0.00038810,-0.00037128,-0.00045711,0.
 00037572,-0.00007055,-0.00119002,-0.00088061,-0.00031465,0.00011738,0.
 00044658,-0.00001746,0.00008769,0.00009015,0.00007421,0.00010143,0.000
 00244,0.00056153,-0.00035481,-0.00034027,0.00020707,0.00021354,0.00005
 705,-0.00004043,-0.00000642,0.00001957,0.00888257,-0.00295345,0.002464
 90,-0.00006124,0.00079306,-0.00219278,-0.16878775,0.12579750,-0.025599
 32,-0.00356841,-0.00403102,-0.00300531,-0.03402888,0.05420038,-0.00694
 464,0.00324256,-0.00181384,0.00151403,0.00081739,-0.00771284,-0.001578
 94,0.19997412,-0.00424982,-0.00240024,0.00061164,-0.00044342,0.0003945
 7,0.00129403,0.00337726,-0.00058976,-0.00343802,-0.00096285,0.00148304
 ,0.00025648,0.00001468,0.00000068,0.00000983,-0.00016197,0.00025691,-0
 .00008769,0.00003658,-0.00001511,-0.00001594,0.00003201,-0.00006381,-0
 .00001679,-0.00009899,0.00000500,0.00006709,-0.00039091,0.00045317,0.0
 0046080,-0.00021534,-0.00019639,-0.00005605,0.00005074,0.00002404,-0.0
 0001766,-0.00389859,0.00509603,0.00192378,0.04422168,-0.04770091,0.007
 69781,0.12817618,-0.23875019,0.01803331,-0.00748685,0.00321479,-0.0025
 7162,0.00825718,-0.01474195,0.00002077,-0.00094559,0.00491160,0.000432
 44,-0.00445882,-0.00302090,-0.00188442,-0.16946871,0.29305151,0.000008
 46,0.00051199,-0.00028709,-0.00083907,-0.00002249,-0.00054324,0.000340
 10,-0.00007180,0.00162623,0.00055530,0.00007273,0.00046757,0.00019374,
 0.00013420,-0.00008563,-0.00004879,-0.00002984,0.00008073,0.00000951,0
 .00000159,-0.00001569,-0.00002493,-0.00000397,-0.00000479,0.00000485,-
 0.00000789,-0.00001816,0.00028011,-0.00015265,-0.00024282,0.00006242,0
 .00008032,0.00004678,0.00001038,-0.00000467,0.00001082,0.00438428,-0.0
 0007597,-0.00473892,0.00085283,-0.00534353,0.00711541,-0.02665182,0.01
 950840,-0.04104377,-0.00330647,-0.00120676,0.00422571,-0.01077625,0.01
 272937,0.00598760,0.00160985,0.00021324,-0.00236384,-0.00137249,-0.002
 73784,0.00361594,0.03381588,-0.02542929,0.02912557,-0.00008258,-0.0000
 2450,0.00000164,-0.00030563,0.00106496,-0.00030906,0.00020736,-0.00149
 934,0.00101608,-0.00006333,0.00031716,-0.00012684,-0.00002489,0.000007
 72,0.00000427,0.00001057,-0.00000660,-0.00002521,0.00000889,-0.0000069
 9,-0.00000607,0.00001144,-0.00001538,-0.00000754,-0.00000011,0.0000079
 6,0.00000100,0.00060020,-0.00092161,-0.00002404,-0.00010953,0.00022089
 ,0.00003405,-0.00005797,0.00009816,-0.00006670,0.00566005,0.00297191,0
 .00286109,0.00943132,0.01904555,0.00216548,-0.00663431,0.00052487,-0.0
 0340391,-0.10094096,-0.08721138,-0.02581243,0.00267547,0.00044332,0.00
 157647,-0.01424317,-0.05227407,-0.01082906,-0.00347870,0.00786318,-0.0
 0149189,0.00110395,0.00103931,0.00034133,0.10830609,-0.00068452,0.0002
 0408,0.00007785,0.00016069,0.00057003,-0.00186849,-0.00281726,-0.00028
 481,0.00401048,0.00051525,-0.00011453,-0.00019992,-0.00004657,0.000041
 07,-0.00010294,-0.00009749,-0.00009414,0.00030571,0.00004968,0.0000097
 9,-0.00004473,-0.00002029,0.00003835,-0.00000248,0.00008025,-0.0000420
 1,-0.00007941,0.00069024,-0.00107290,-0.00056598,0.00016554,0.00037971
 ,0.00006880,-0.00009049,0.00004264,-0.00002496,0.00364078,0.00667955,0
 .00028197,-0.02292210,-0.05638804,-0.01220433,0.00406546,0.00586128,0.
 00130947,-0.08395894,-0.32039628,-0.04832225,0.00016937,0.00521585,0.0
 0071501,-0.00916558,-0.03482461,-0.00618111,0.00482302,0.00116041,0.00
 106368,0.00189054,-0.00592168,-0.00014056,0.11427671,0.39801219,-0.000
 05123,0.00002418,0.00000060,-0.00057485,-0.00040098,-0.00056821,-0.000
 29051,0.00009035,0.00169379,0.00027045,-0.00009272,-0.00002473,0.00001
 557,-0.00002653,-0.00003183,-0.00002617,-0.00004836,0.00008488,0.00000
 804,0.00000367,-0.00000447,-0.00001433,0.00001923,0.00000102,0.0000215
 2,-0.00000564,-0.00002386,0.00030786,-0.00022663,-0.00029849,0.0000621
 7,0.00009291,0.00004640,0.00000651,-0.00000342,0.00001845,0.00450184,0
 .00203311,-0.00458777,-0.00280562,0.00023773,0.00706637,-0.00312725,0.
 00016821,0.00433405,-0.02517492,-0.04883336,-0.04850257,0.00165617,0.0
 0087228,-0.00230926,-0.00701954,-0.01859782,0.00497190,-0.00177292,0.0
 0203538,0.00404868,0.00044594,-0.00025678,0.00043832,0.03307827,0.0639
 9693,0.03777071,0.00023777,-0.00015739,-0.00003294,-0.00046046,-0.0000
 6614,0.00092209,0.00200943,-0.00022589,-0.00222467,-0.00032850,0.00027
 577,0.00014097,0.00003628,-0.00003731,0.00005085,0.00004564,0.00008562
 ,-0.00016729,-0.00002027,-0.00000749,0.00002152,0.00000854,-0.00002578
 ,-0.00000277,-0.00005115,0.00002866,0.00004827,-0.00022802,0.00027782,
 0.00029382,-0.00013595,-0.00012854,-0.00000982,0.00003594,0.00001996,0
 .00000710,-0.00353083,-0.00292673,-0.00005165,-0.00332057,0.00794091,-
 0.00142346,-0.01196691,-0.05130235,-0.00992450,0.00294640,0.00089758,0
 .00159975,-0.10204679,-0.08716796,-0.02626100,-0.00740144,0.00002674,-
 0.00325102,0.00895700,0.01810027,0.00183013,0.00379699,-0.00026052,0.0
 0255798,-0.00081149,-0.00316931,-0.00079183,0.10380096,0.00053831,-0.0
 0021409,-0.00005563,-0.00103038,-0.00012361,0.00144493,0.00349178,-0.0
 0015276,-0.00325324,-0.00068859,0.00045419,0.00027137,0.00005691,-0.00
 005612,0.00009346,0.00008691,0.00015226,-0.00032555,-0.00004216,-0.000
 01291,0.00004308,0.00001994,-0.00005122,-0.00000620,-0.00009832,0.0000
 5242,0.00008965,-0.00028005,0.00043917,0.00042363,-0.00021672,-0.00019
 096,-0.00002892,0.00004308,0.00002265,-0.00001533,-0.00568403,-0.00168
 514,0.00026944,0.00492368,0.00142193,0.00120242,-0.00732720,-0.0315241
 8,-0.00549226,0.00105953,0.00550935,0.00080326,-0.08712610,-0.32077715
 ,-0.04859183,0.00247824,0.00467403,0.00065816,-0.02681449,-0.05470442,
 -0.01281032,-0.00262628,0.01042386,0.00068665,-0.00283480,-0.00895466,
 -0.00171522,0.11636113,0.39447660,0.00009805,-0.00008347,-0.00001835,-
 0.00014622,-0.00016054,0.00037782,0.00075439,-0.00003877,-0.00094683,-
 0.00015048,0.00014616,0.00006541,0.00001414,-0.00001219,0.00002446,0.0
 0001815,0.00003911,-0.00007847,-0.00000936,-0.00000341,0.00000982,0.00
 000509,-0.00001201,-0.00000093,-0.00002404,0.00001122,0.00002310,-0.00
 011845,0.00011669,0.00012031,-0.00006311,-0.00005889,-0.00000500,0.000
 01249,0.00000815,-0.00000020,-0.00147272,-0.00101134,0.00042824,-0.001
 82407,0.00215777,0.00436776,-0.00622650,-0.01778078,0.00462217,0.00173
 951,0.00089126,-0.00224713,-0.02613247,-0.04869013,-0.04610659,-0.0030
 6192,0.00001190,0.00336236,-0.00200546,-0.00014482,0.00741386,0.002345
 34,0.00133749,-0.00464246,-0.00072849,-0.00173981,0.00059264,0.0328452
 9,0.06414732,0.03614589,0.00050696,-0.00019588,-0.00006241,-0.00076994
 ,-0.00017094,0.00133538,0.00312939,0.00037405,-0.00325039,-0.00073816,
 0.00035895,0.00039370,0.00006792,-0.00006665,0.00008054,0.00006738,0.0
 0015895,-0.00030932,-0.00004410,-0.00000981,0.00004022,0.00001802,-0.0
 0003819,-0.00000227,-0.00009069,0.00004431,0.00009032,-0.00017961,0.00
 035579,0.00028382,-0.00015867,-0.00014772,-0.00001605,0.00003732,0.000
 01628,-0.00000211,-0.00635144,0.00149114,0.00033210,0.00133450,-0.0086
 3112,-0.00156894,0.00378714,-0.00107653,0.00166453,-0.03259087,0.05276
 293,-0.00704686,-0.00545954,-0.00323760,-0.00297436,-0.17839873,0.1379
 5603,-0.02823098,-0.00056761,0.00061121,-0.00235740,-0.00382208,0.0049
 5265,-0.00080949,0.00402123,-0.00225979,0.00239484,0.00133827,0.001759
 66,0.00031718,0.20610843,-0.00064632,0.00013944,0.00006723,0.00081363,
 0.00016970,-0.00110942,-0.00269366,-0.00011453,0.00246583,0.00057772,-
 0.00029975,-0.00025004,-0.00004238,0.00005049,-0.00008137,-0.00007251,
 -0.00009835,0.00028510,0.00004444,0.00000835,-0.00004244,-0.00001770,0
 .00003485,0.00000249,0.00007528,-0.00004110,-0.00007387,0.00018823,-0.
 00033980,-0.00028046,0.00015118,0.00013658,0.00002252,-0.00002708,-0.0
 0000893,0.00001344,0.00442509,0.00059807,-0.00029468,-0.00523880,-0.00
 161481,-0.00209830,-0.00171738,0.00386427,0.00015933,0.00844504,-0.013
 65467,0.00060280,-0.00565987,0.00281521,-0.00166577,0.13817881,-0.2485
 3922,0.02036015,0.04552516,-0.04640672,0.00798708,0.00515037,-0.006180
 69,0.00071240,-0.00044580,0.01085698,0.00133883,0.00066945,-0.00576976
 ,-0.00038087,-0.18400945,0.29877696,0.00007664,-0.00004039,-0.00001561
 ,-0.00017494,0.00007990,0.00026082,0.00061059,-0.00006877,-0.00069960,
 -0.00017016,0.00012209,0.00007866,0.00001497,-0.00001351,0.00001322,0.
 00001157,0.00003609,-0.00006292,-0.00000841,-0.00000209,0.00000770,0.0
 0000399,-0.00000895,0.00000010,-0.00001943,0.00000892,0.00002036,-0.00
 004394,0.00007099,0.00007004,-0.00003637,-0.00003341,-0.00000319,0.000
 00650,0.00000279,0.00000074,-0.00141626,0.00054555,0.00029876,-0.00142
 363,-0.00320539,0.00425888,0.00165856,0.00030933,-0.00224621,-0.010622
 45,0.01297493,0.00627461,-0.00313320,-0.00102033,0.00324485,-0.0281770
 0,0.02021101,-0.04126402,0.00150370,-0.00447204,0.00796822,-0.00085050
 ,0.00077463,0.00077850,0.00262744,0.00076759,-0.00468323,0.00020787,-0
 .00004943,0.00083966,0.03574140,-0.02762720,0.02929014,0.00063468,-0.0
 0031416,-0.00010178,-0.00098335,-0.00021791,0.00234242,0.00518500,0.00
 007088,-0.00509540,-0.00098230,0.00049318,0.00042080,0.00008663,-0.000
 06682,0.00013233,0.00012540,0.00022875,-0.00046165,-0.00005871,-0.0000
 2149,0.00005581,0.00002857,-0.00006977,-0.00000539,-0.00013888,0.00006
 979,0.00013095,-0.00045144,0.00069088,0.00061636,-0.00030891,-0.000282
 45,-0.00007816,0.00006106,0.00002292,-0.00003561,-0.01106738,-0.001572
 49,-0.00078612,0.00474275,0.00047531,0.00239918,0.00445625,-0.00007593
 ,0.00001853,0.00290716,0.00352325,-0.00016925,-0.05027804,-0.01402760,
 -0.01732146,-0.03984658,-0.00098220,-0.01331609,-0.33263179,-0.0391289
 6,-0.08611708,-0.00471127,0.00303454,-0.00115416,-0.00230447,-0.003893
 48,-0.00121555,0.00718158,0.00419243,0.00385859,0.00889521,-0.00382678
 ,0.00363723,0.40966125,-0.00002644,-0.00008540,0.00001187,-0.00017596,
 0.00000658,0.00033593,0.00084246,-0.00007250,-0.00074272,-0.00014207,0
 .00010604,0.00005542,0.00001517,-0.00000596,0.00001524,0.00001768,0.00
 004977,-0.00005699,-0.00000416,-0.00000473,0.00000258,0.00000490,-0.00
 001229,-0.00000179,-0.00002202,0.00000900,0.00002009,-0.00005640,0.000
 08565,0.00008680,-0.00004702,-0.00003842,-0.00001105,0.00000948,0.0000
 0448,-0.00000642,-0.00171762,-0.00004340,-0.00015338,0.00023398,0.0028
 9188,0.00059413,-0.00265975,-0.00789510,-0.00181859,0.00629553,-0.0060
 7519,0.00087274,0.03061705,0.00839044,0.00856744,-0.04566921,-0.001473
 30,-0.01345086,-0.03903180,-0.07988215,-0.01463483,0.00207166,0.000445
 91,0.00053007,-0.00287923,-0.00136998,-0.00101308,0.00095332,0.0068899
 4,0.00131582,-0.00071334,0.00535276,0.00069866,0.05214857,0.07278480,0
 .00014925,-0.00009476,-0.00002365,-0.00004781,-0.00004743,0.00081616,0
 .00143681,-0.00003818,-0.00196818,-0.00028927,0.00017773,0.00012253,0.
 00001885,-0.00001601,0.00003800,0.00002816,0.00006921,-0.00013671,-0.0
 0001617,-0.00000505,0.00001600,0.00000981,-0.00002103,-0.00000126,-0.0
 0004076,0.00001807,0.00003851,-0.00018378,0.00022242,0.00024101,-0.000
 09817,-0.00009609,-0.00002972,0.00001577,0.00000634,-0.00001159,-0.003
 80489,-0.00055188,0.00098755,0.00240607,0.00064563,-0.00207584,0.00000
 538,-0.00097359,0.00407710,0.00030304,0.00009792,0.00437319,-0.0137822
 3,-0.00387482,0.00396379,-0.01733329,-0.00114750,0.00321199,-0.0860992
 5,-0.01468278,-0.05974906,-0.00138692,0.00084757,0.00046186,-0.0010999
 1,-0.00128516,0.00021040,0.00362276,0.00223258,-0.00434467,0.00396925,
 -0.00013003,-0.00442671,0.11226657,0.01878461,0.05421855,0.00074225,-0
 .00090135,0.00004313,0.00186451,-0.00042729,0.00192722,0.00960111,-0.0
 1764886,0.00382660,-0.00187456,-0.00658427,-0.00132499,-0.00030132,-0.
 00033808,-0.00010416,-0.00065318,-0.00037950,0.00046012,0.00050772,-0.
 00008602,-0.00023612,0.00006156,0.00004906,-0.00001001,0.00047955,0.00
 016554,-0.00018502,-0.11180855,0.03837006,-0.02437875,-0.00888249,0.03
 732535,-0.00554887,-0.00118067,0.01336178,-0.00224343,0.00219498,-0.00
 076161,-0.00085720,0.00064536,0.00056111,-0.00016369,0.00006055,0.0000
 9808,0.00007459,0.00052558,0.00145334,0.00028872,0.00004375,0.00016313
 ,0.00006167,0.00006121,-0.00032487,-0.00004627,0.00015783,0.00005801,0
 .00002959,-0.00001299,-0.00013328,-0.00003668,-0.00260682,-0.00120687,
 0.00006995,-0.00009183,-0.00022855,-0.00004326,-0.00013201,0.00014630,
 -0.00002303,-0.00020034,-0.00005890,-0.00005180,0.35825912,0.00171483,
 -0.00099199,-0.00014340,-0.00207292,0.00183873,-0.00065678,0.01576270,
 -0.03589769,0.00389921,-0.00404825,-0.00520922,-0.00255180,-0.00033428
 ,0.00207826,-0.00041475,-0.00041736,-0.00065110,0.00114957,-0.00038583
 ,0.00026868,0.00004406,0.00012126,0.00004981,-0.00008367,0.00029011,-0
 .00036360,-0.00045430,0.07809248,-0.21885664,0.02648627,0.01415545,-0.
 02112451,-0.00190486,0.00957186,-0.02561182,0.00818142,-0.00310147,-0.
 00008170,-0.00055711,0.00142478,0.00068210,0.00100365,-0.00018960,0.00
 019668,-0.00009518,-0.00033603,-0.00061758,-0.00019560,0.00018786,0.00
 038093,0.00005802,0.00032319,-0.00020316,0.00001590,0.00034926,0.00001
 825,0.00011357,-0.00013499,-0.00022731,0.00005020,-0.00003411,0.000288
 13,0.00031767,-0.00019080,-0.00035479,-0.00007945,-0.00032391,0.000302
 42,-0.00006811,-0.00053721,-0.00007251,-0.00015678,0.11500084,0.530967
 77,0.00055394,-0.00057947,0.00022732,0.00132258,-0.00061552,0.00276117
 ,0.00591490,-0.01164894,0.00124997,-0.00137260,-0.00338113,-0.00047067
 ,0.00009702,-0.00072116,-0.00017355,-0.00012807,-0.00002527,0.00037473
 ,-0.00010520,0.00013498,0.00001606,-0.00001148,0.00001618,0.00002947,0
 .00009206,-0.00006128,-0.00006231,-0.01968887,0.00488237,-0.07252744,0
 .00417988,-0.01489930,0.00796718,-0.01446707,0.03481174,0.00372874,-0.
 00048252,0.00059537,0.00029152,-0.00006591,-0.00003950,0.00011469,0.00
 001654,0.00004797,-0.00001510,0.00007314,-0.00001091,-0.00004078,0.000
 02830,0.00006539,0.00000294,0.00005651,-0.00003729,0.00001042,0.000048
 85,0.00000808,0.00001894,-0.00005372,-0.00002433,0.00001385,0.00013523
 ,0.00017103,-0.00025701,-0.00002620,-0.00005754,-0.00001165,-0.0000448
 6,0.00004278,-0.00001061,-0.00006778,-0.00000953,-0.00002361,0.1758709
 6,0.10659389,0.14830808,-0.00015517,0.00021359,-0.00000110,0.00064178,
 -0.00044265,0.00063895,-0.00244249,0.00160158,-0.00089699,0.00041394,0
 .00130531,0.00020755,0.00006314,-0.00018008,0.00003941,0.00015936,-0.0
 0003409,-0.00016797,-0.00001234,-0.00002906,-0.00000455,-0.00000833,0.
 00000588,0.00002504,-0.00005103,0.,0.00003637,0.00814968,0.02001639,0.
 00709162,0.00043704,0.00093653,0.00024066,0.00000755,0.00101458,-0.000
 63919,0.00049800,-0.00016967,-0.00012957,0.00006530,0.00012802,-0.0000
 8275,0.00000897,0.00001840,0.00002192,0.00014486,0.00029572,0.00004891
 ,-0.00001201,0.00000549,0.00000388,0.00001106,-0.00003830,0.00000044,0
 .00000256,0.00000528,-0.00000849,0.00003257,-0.00001716,-0.00000687,-0
 .00037261,-0.00019484,0.00002559,-0.00000061,-0.00001392,-0.00000167,-
 0.00000834,0.00000700,-0.00000116,-0.00000208,-0.00000588,0.00000252,-
 0.24746031,-0.22488784,-0.15187564,0.23988951,0.00029702,-0.00031048,0
 .00002486,0.00023853,0.00129097,0.00052458,0.00436557,-0.00509328,0.00
 215032,-0.00096872,-0.00127866,-0.00045223,-0.00007903,-0.00013534,-0.
 00006493,-0.00010740,-0.00008575,0.00008975,0.00008361,-0.00000445,-0.
 00004622,0.00002195,-0.00000991,-0.00000438,0.00009788,0.00004231,-0.0
 0003845,-0.02604961,-0.03335379,-0.01687525,-0.00025111,0.00172160,-0.
 00070524,-0.00098023,0.00205166,0.00038170,0.00054148,0.00052903,-0.00
 013909,-0.00028677,0.00005075,-0.00006169,0.00009528,-0.00006212,0.000
 01404,-0.00005707,-0.00014906,-0.00002659,-0.00002154,-0.00003619,-0.0
 0000239,-0.00004459,0.00005690,-0.00000351,-0.00004372,-0.00000440,-0.
 00001371,-0.00004495,0.00004784,-0.00000391,0.00027214,0.00010358,-0.0
 0000996,0.00002898,0.00005540,0.00001361,0.00003897,-0.00003776,0.0000
 0716,0.00006677,0.00001368,0.00001902,-0.17767316,-0.22680815,-0.11525
 860,0.20045972,0.26140562,-0.00006508,0.00008141,0.00001213,0.00040943
 ,-0.00064729,0.00086056,-0.00095087,0.00013981,-0.00193633,-0.00009262
 ,0.00068308,0.00030095,0.00003891,-0.00006061,0.00010698,-0.00008136,0
 .00015123,-0.00006740,0.00005486,-0.00000260,0.00000531,-0.00000961,-0
 .00000230,0.00001005,-0.00000084,0.00006081,0.00006527,0.00292512,0.00
 855873,0.00032460,-0.00113112,0.00031421,0.00025060,0.00054966,0.00060
 217,0.00115869,0.00027649,0.00029227,0.00019091,-0.00013502,-0.0000923
 9,-0.00013253,0.00004907,-0.00003998,0.00001386,0.00002202,-0.00000203
 ,0.00001423,-0.00001324,-0.00002738,-0.00000371,-0.00003326,0.00002037
 ,-0.00000633,-0.00002931,-0.00000126,-0.00001128,-0.00000346,0.0000309
 0,-0.00000849,0.00008881,-0.00000642,0.00001321,0.00001873,0.00003550,
 0.00000878,0.00003217,-0.00002552,0.00000684,0.00004672,0.00000784,0.0
 0001440,-0.14739928,-0.14055166,-0.09152237,0.14543307,0.13048112,0.09
 033108\\0.00000276,-0.00000298,0.00000491,-0.00000081,0.00000324,0.000
 00163,0.00000329,0.00000108,0.00000168,-0.00000127,-0.00000030,0.00000
 155,-0.00000125,0.00000241,0.00000546,0.00000695,0.00000201,0.00000862
 ,0.00000299,0.00000237,0.00001193,0.00000733,0.00000398,0.00000673,0.0
 0000307,0.00000196,0.00000680,-0.00000245,-0.00000447,0.00000846,0.000
 00011,-0.00000084,0.00001110,-0.00000515,0.00000322,0.00000933,-0.0000
 0323,-0.00000202,-0.00000298,-0.00000318,0.00000044,-0.00000003,-0.000
 00394,0.00000224,-0.00000865,-0.00000235,-0.00000135,-0.00000362,0.000
 00111,-0.00000189,-0.00001107,-0.00000086,-0.00000117,-0.00001015,0.00
 000053,-0.00000090,-0.00001264,-0.00000236,-0.00000287,-0.00000488,-0.
 00000222,-0.00000178,-0.00000307,0.00000208,-0.00000055,-0.00001365,0.
 00000006,-0.00000178,-0.00001125,0.00000259,-0.00000125,-0.00001672,0.
 00000045,-0.00000005,0.00000956,-0.00000425,0.00000124,0.00001098\\\@


 ONE OF THE BENEFITS OF A COLLEGE EDUCATION
 IS TO SHOW THE BOY ITS LITTLE AVAIL 
                                    EMERSON IN 'CULTURE'
 Job cpu time:       0 days  7 hours 57 minutes 25.1 seconds.
 Elapsed time:       0 days  0 hours 19 minutes 55.1 seconds.
 File lengths (MBytes):  RWF=    991 Int=      0 D2E=      0 Chk=     41 Scr=      1
 Normal termination of Gaussian 16 at Wed Aug 28 23:21:57 2024.
