 Entering Gaussian System, Link 0=g16
 Input=input.com
 Output=input.log
 Initial command:
 /opt/apps/g16_avx2/tar//g16/l1.exe "/scratch/Gau-64243.inp" -scrdir="/scratch/"
 Entering Link 1 = /opt/apps/g16_avx2/tar//g16/l1.exe PID=     64244.
  
 Copyright (c) 1988-2017, Gaussian, Inc.  All Rights Reserved.
  
 This is part of the Gaussian(R) 16 program.  It is based on
 the Gaussian(R) 09 system (copyright 2009, Gaussian, Inc.),
 the Gaussian(R) 03 system (copyright 2003, Gaussian, Inc.),
 the Gaussian(R) 98 system (copyright 1998, Gaussian, Inc.),
 the Gaussian(R) 94 system (copyright 1995, Gaussian, Inc.),
 the Gaussian 92(TM) system (copyright 1992, Gaussian, Inc.),
 the Gaussian 90(TM) system (copyright 1990, Gaussian, Inc.),
 the Gaussian 88(TM) system (copyright 1988, Gaussian, Inc.),
 the Gaussian 86(TM) system (copyright 1986, Carnegie Mellon
 University), and the Gaussian 82(TM) system (copyright 1983,
 Carnegie Mellon University). Gaussian is a federally registered
 trademark of Gaussian, Inc.
  
 This software contains proprietary and confidential information,
 including trade secrets, belonging to Gaussian, Inc.
  
 This software is provided under written license and may be
 used, copied, transmitted, or stored only in accord with that
 written license.
  
 The following legend is applicable only to US Government
 contracts under FAR:
  
                    RESTRICTED RIGHTS LEGEND
  
 Use, reproduction and disclosure by the US Government is
 subject to restrictions as set forth in subparagraphs (a)
 and (c) of the Commercial Computer Software - Restricted
 Rights clause in FAR 52.227-19.
  
 Gaussian, Inc.
 340 Quinnipiac St., Bldg. 40, Wallingford CT 06492
  
  
 ---------------------------------------------------------------
 Warning -- This program may not be used in any manner that
 competes with the business of Gaussian, Inc. or will provide
 assistance to any competitor of Gaussian, Inc.  The licensee
 of this program is prohibited from giving any competitor of
 Gaussian, Inc. access to this program.  By using this program,
 the user acknowledges that Gaussian, Inc. is engaged in the
 business of creating and licensing software in the field of
 computational chemistry and represents and warrants to the
 licensee that it is not a competitor of Gaussian, Inc. and that
 it will not use this program in any manner prohibited above.
 ---------------------------------------------------------------
  

 Cite this work as:
 Gaussian 16, Revision B.01,
 M. J. Frisch, G. W. Trucks, H. B. Schlegel, G. E. Scuseria, 
 M. A. Robb, J. R. Cheeseman, G. Scalmani, V. Barone, 
 G. A. Petersson, H. Nakatsuji, X. Li, M. Caricato, A. V. Marenich, 
 J. Bloino, B. G. Janesko, R. Gomperts, B. Mennucci, H. P. Hratchian, 
 J. V. Ortiz, A. F. Izmaylov, J. L. Sonnenberg, D. Williams-Young, 
 F. Ding, F. Lipparini, F. Egidi, J. Goings, B. Peng, A. Petrone, 
 T. Henderson, D. Ranasinghe, V. G. Zakrzewski, J. Gao, N. Rega, 
 G. Zheng, W. Liang, M. Hada, M. Ehara, K. Toyota, R. Fukuda, 
 J. Hasegawa, M. Ishida, T. Nakajima, Y. Honda, O. Kitao, H. Nakai, 
 T. Vreven, K. Throssell, J. A. Montgomery, Jr., J. E. Peralta, 
 F. Ogliaro, M. J. Bearpark, J. J. Heyd, E. N. Brothers, K. N. Kudin, 
 V. N. Staroverov, T. A. Keith, R. Kobayashi, J. Normand, 
 K. Raghavachari, A. P. Rendell, J. C. Burant, S. S. Iyengar, 
 J. Tomasi, M. Cossi, J. M. Millam, M. Klene, C. Adamo, R. Cammi, 
 J. W. Ochterski, R. L. Martin, K. Morokuma, O. Farkas, 
 J. B. Foresman, and D. J. Fox, Gaussian, Inc., Wallingford CT, 2016.
 
 ******************************************
 Gaussian 16:  ES64L-G16RevB.01 20-Dec-2017
                14-Feb-2025 
 ******************************************
 %nprocshared=16
 Will use up to   16 processors via shared memory.
 %mem=60GB
 ----------------------------------------------------------------------
 #P PBE1PBE/def2TZVP opt=(calcfc, ts, noeigentest) freq EmpiricalDisper
 sion=GD3 Int=(grid=99590) scrf=(iefpcm, solvent=water)
 ----------------------------------------------------------------------
 1/5=1,10=4,11=1,18=20,26=6,38=1/1,3;
 2/9=110,12=2,17=6,18=5,40=1/2;
 3/5=44,7=101,11=2,25=1,30=1,70=2201,71=2,72=1,74=-13,75=99590,124=31,140=1/1,2,3;
 4//1;
 5/5=2,38=5,53=1/2;
 8/6=4,10=90,11=11/1;
 11/6=1,8=1,9=11,15=111,16=1/1,2,10;
 10/6=1,13=1/2;
 6/7=2,8=2,9=2,10=2,28=1/1;
 7/10=1,18=20,25=1/1,2,3,16;
 1/5=1,10=4,11=1,18=20,26=6/3(2);
 2/9=110/2;
 99//99;
 2/9=110/2;
 3/5=44,7=101,11=2,25=1,30=1,70=2205,71=1,72=1,74=-13,75=99590,124=31/1,2,3;
 4/5=5,16=3,69=1/1;
 5/5=2,38=5,53=1/2;
 7//1,2,3,16;
 1/5=1,11=1,18=20,26=6/3(-5);
 2/9=110/2;
 6/7=2,8=2,9=2,10=2,19=2,28=1/1;
 99/9=1/99;
 Leave Link    1 at Fri Feb 14 12:11:37 2025, MaxMem=  8053063680 cpu:               0.4 elap:               0.1
 (Enter /opt/apps/g16_avx2/tar//g16/l101.exe)
 ----------
 x=chf2 ts1
 ----------
 Symbolic Z-matrix:
 Charge =  0 Multiplicity = 1
 H                    -2.32657   1.6415    0.16261 
 O                    -1.82377  -0.72564   1.24022 
 C                    -2.25774  -0.58416   0.10109 
 N                    -3.09036   0.98771   0.02173 
 H                    -3.43878   1.13929  -0.92016 
 C                    -4.12976   1.15763   1.03776 
 H                    -5.02708   0.61666   0.7535 
 H                    -3.75319   0.75212   1.97633 
 H                    -4.3764    2.21118   1.17101 
 C                    -3.25176  -1.51776  -0.5476 
 O                    -1.25866  -0.2855   -0.97109 
 C                     0.00867  -0.13136  -0.55521 
 C                     0.58166   1.13112  -0.45166 
 C                     0.81427  -1.22603  -0.25672 
 C                     1.90334   1.30492  -0.08103 
 C                     2.13532  -1.06893   0.12258 
 C                     2.68342   0.19976   0.21041 
 F                    -0.15878   2.20851  -0.71158 
 F                     0.31675  -2.45299  -0.35147 
 F                     2.42292   2.52395   0.00314 
 F                     2.88397  -2.13066   0.39819 
 F                     3.95125   0.35432   0.56926 
 F                    -2.7004   -2.75001  -0.5407 
 H                    -3.46996  -1.24096  -1.55789 
 F                    -4.39888  -1.56364   0.1627 
 
 Add virtual bond connecting atoms N4         and C3         Dist= 3.36D+00.
 ITRead=  0  0  0  0  0  0  0  0  0  0  0  0  0  0  0  0  0  0  0  0
 ITRead=  0  0  0  0  0
 MicOpt= -1 -1 -1 -1 -1 -1 -1 -1 -1 -1 -1 -1 -1 -1 -1 -1 -1 -1 -1 -1
 MicOpt= -1 -1 -1 -1 -1
 NAtoms=     25 NQM=       25 NQMF=       0 NMMI=      0 NMMIF=      0
                NMic=       0 NMicF=      0.
                    Isotopes and Nuclear Properties:
 (Nuclear quadrupole moments (NQMom) in fm**2, nuclear magnetic moments (NMagM)
  in nuclear magnetons)

  Atom         1           2           3           4           5           6           7           8           9          10
 IAtWgt=           1          16          12          14           1          12           1           1           1          12
 AtmWgt=   1.0078250  15.9949146  12.0000000  14.0030740   1.0078250  12.0000000   1.0078250   1.0078250   1.0078250  12.0000000
 NucSpn=           1           0           0           2           1           0           1           1           1           0
 AtZEff=  -0.0000000  -0.0000000  -0.0000000  -0.0000000  -0.0000000  -0.0000000  -0.0000000  -0.0000000  -0.0000000  -0.0000000
 NQMom=    0.0000000   0.0000000   0.0000000   2.0440000   0.0000000   0.0000000   0.0000000   0.0000000   0.0000000   0.0000000
 NMagM=    2.7928460   0.0000000   0.0000000   0.4037610   2.7928460   0.0000000   2.7928460   2.7928460   2.7928460   0.0000000
 AtZNuc=   1.0000000   8.0000000   6.0000000   7.0000000   1.0000000   6.0000000   1.0000000   1.0000000   1.0000000   6.0000000

  Atom        11          12          13          14          15          16          17          18          19          20
 IAtWgt=          16          12          12          12          12          12          12          19          19          19
 AtmWgt=  15.9949146  12.0000000  12.0000000  12.0000000  12.0000000  12.0000000  12.0000000  18.9984032  18.9984032  18.9984032
 NucSpn=           0           0           0           0           0           0           0           1           1           1
 AtZEff=  -0.0000000  -0.0000000  -0.0000000  -0.0000000  -0.0000000  -0.0000000  -0.0000000  -0.0000000  -0.0000000  -0.0000000
 NQMom=    0.0000000   0.0000000   0.0000000   0.0000000   0.0000000   0.0000000   0.0000000   0.0000000   0.0000000   0.0000000
 NMagM=    0.0000000   0.0000000   0.0000000   0.0000000   0.0000000   0.0000000   0.0000000   2.6288670   2.6288670   2.6288670
 AtZNuc=   8.0000000   6.0000000   6.0000000   6.0000000   6.0000000   6.0000000   6.0000000   9.0000000   9.0000000   9.0000000

  Atom        21          22          23          24          25
 IAtWgt=          19          19          19           1          19
 AtmWgt=  18.9984032  18.9984032  18.9984032   1.0078250  18.9984032
 NucSpn=           1           1           1           1           1
 AtZEff=  -0.0000000  -0.0000000  -0.0000000  -0.0000000  -0.0000000
 NQMom=    0.0000000   0.0000000   0.0000000   0.0000000   0.0000000
 NMagM=    2.6288670   2.6288670   2.6288670   2.7928460   2.6288670
 AtZNuc=   9.0000000   9.0000000   9.0000000   1.0000000   9.0000000
 Leave Link  101 at Fri Feb 14 12:11:37 2025, MaxMem=  8053063680 cpu:               1.9 elap:               0.2
 (Enter /opt/apps/g16_avx2/tar//g16/l103.exe)

 GradGradGradGradGradGradGradGradGradGradGradGradGradGradGradGradGradGrad
 Berny optimization.
 Initialization pass.
                           ----------------------------
                           !    Initial Parameters    !
                           ! (Angstroms and Degrees)  !
 --------------------------                            --------------------------
 ! Name  Definition              Value          Derivative Info.                !
 --------------------------------------------------------------------------------
 ! R1    R(1,4)                  1.0152         calculate D2E/DX2 analytically  !
 ! R2    R(2,3)                  1.2272         calculate D2E/DX2 analytically  !
 ! R3    R(3,4)                  1.7805         calculate D2E/DX2 analytically  !
 ! R4    R(3,10)                 1.5101         calculate D2E/DX2 analytically  !
 ! R5    R(3,11)                 1.4956         calculate D2E/DX2 analytically  !
 ! R6    R(4,5)                  1.0156         calculate D2E/DX2 analytically  !
 ! R7    R(4,6)                  1.4634         calculate D2E/DX2 analytically  !
 ! R8    R(6,7)                  1.0856         calculate D2E/DX2 analytically  !
 ! R9    R(6,8)                  1.0896         calculate D2E/DX2 analytically  !
 ! R10   R(6,9)                  1.0902         calculate D2E/DX2 analytically  !
 ! R11   R(10,23)                1.35           calculate D2E/DX2 analytically  !
 ! R12   R(10,24)                1.07           calculate D2E/DX2 analytically  !
 ! R13   R(10,25)                1.35           calculate D2E/DX2 analytically  !
 ! R14   R(11,12)                1.3427         calculate D2E/DX2 analytically  !
 ! R15   R(12,13)                1.3903         calculate D2E/DX2 analytically  !
 ! R16   R(12,14)                1.3915         calculate D2E/DX2 analytically  !
 ! R17   R(13,15)                1.3836         calculate D2E/DX2 analytically  !
 ! R18   R(13,18)                1.3329         calculate D2E/DX2 analytically  !
 ! R19   R(14,16)                1.3834         calculate D2E/DX2 analytically  !
 ! R20   R(14,19)                1.3274         calculate D2E/DX2 analytically  !
 ! R21   R(15,17)                1.3838         calculate D2E/DX2 analytically  !
 ! R22   R(15,20)                1.3278         calculate D2E/DX2 analytically  !
 ! R23   R(16,17)                1.3848         calculate D2E/DX2 analytically  !
 ! R24   R(16,21)                1.328          calculate D2E/DX2 analytically  !
 ! R25   R(17,22)                1.3267         calculate D2E/DX2 analytically  !
 ! A1    A(2,3,4)              107.9698         calculate D2E/DX2 analytically  !
 ! A2    A(2,3,10)             124.0725         calculate D2E/DX2 analytically  !
 ! A3    A(2,3,11)             116.8869         calculate D2E/DX2 analytically  !
 ! A4    A(4,3,10)             102.6399         calculate D2E/DX2 analytically  !
 ! A5    A(4,3,11)              95.977          calculate D2E/DX2 analytically  !
 ! A6    A(10,3,11)            104.7864         calculate D2E/DX2 analytically  !
 ! A7    A(1,4,3)              102.1534         calculate D2E/DX2 analytically  !
 ! A8    A(1,4,5)              106.8978         calculate D2E/DX2 analytically  !
 ! A9    A(1,4,6)              111.2992         calculate D2E/DX2 analytically  !
 ! A10   A(3,4,5)              109.4823         calculate D2E/DX2 analytically  !
 ! A11   A(3,4,6)              113.8094         calculate D2E/DX2 analytically  !
 ! A12   A(5,4,6)              112.5123         calculate D2E/DX2 analytically  !
 ! A13   A(4,6,7)              110.3289         calculate D2E/DX2 analytically  !
 ! A14   A(4,6,8)              108.0218         calculate D2E/DX2 analytically  !
 ! A15   A(4,6,9)              110.9623         calculate D2E/DX2 analytically  !
 ! A16   A(7,6,8)              109.0111         calculate D2E/DX2 analytically  !
 ! A17   A(7,6,9)              109.0598         calculate D2E/DX2 analytically  !
 ! A18   A(8,6,9)              109.4245         calculate D2E/DX2 analytically  !
 ! A19   A(3,10,23)            107.0541         calculate D2E/DX2 analytically  !
 ! A20   A(3,10,24)            112.3267         calculate D2E/DX2 analytically  !
 ! A21   A(3,10,25)            110.7514         calculate D2E/DX2 analytically  !
 ! A22   A(23,10,24)           108.9191         calculate D2E/DX2 analytically  !
 ! A23   A(23,10,25)           108.2595         calculate D2E/DX2 analytically  !
 ! A24   A(24,10,25)           109.4088         calculate D2E/DX2 analytically  !
 ! A25   A(3,11,12)            115.5556         calculate D2E/DX2 analytically  !
 ! A26   A(11,12,13)           121.0857         calculate D2E/DX2 analytically  !
 ! A27   A(11,12,14)           121.504          calculate D2E/DX2 analytically  !
 ! A28   A(13,12,14)           117.3723         calculate D2E/DX2 analytically  !
 ! A29   A(12,13,15)           121.8508         calculate D2E/DX2 analytically  !
 ! A30   A(12,13,18)           119.3755         calculate D2E/DX2 analytically  !
 ! A31   A(15,13,18)           118.7734         calculate D2E/DX2 analytically  !
 ! A32   A(12,14,16)           121.4881         calculate D2E/DX2 analytically  !
 ! A33   A(12,14,19)           119.6596         calculate D2E/DX2 analytically  !
 ! A34   A(16,14,19)           118.847          calculate D2E/DX2 analytically  !
 ! A35   A(13,15,17)           119.6426         calculate D2E/DX2 analytically  !
 ! A36   A(13,15,20)           120.4039         calculate D2E/DX2 analytically  !
 ! A37   A(17,15,20)           119.9524         calculate D2E/DX2 analytically  !
 ! A38   A(14,16,17)           119.9596         calculate D2E/DX2 analytically  !
 ! A39   A(14,16,21)           120.2943         calculate D2E/DX2 analytically  !
 ! A40   A(17,16,21)           119.7455         calculate D2E/DX2 analytically  !
 ! A41   A(15,17,16)           119.6832         calculate D2E/DX2 analytically  !
 ! A42   A(15,17,22)           120.1759         calculate D2E/DX2 analytically  !
 ! A43   A(16,17,22)           120.1407         calculate D2E/DX2 analytically  !
 ! D1    D(2,3,4,1)             65.5037         calculate D2E/DX2 analytically  !
 ! D2    D(2,3,4,5)            178.5561         calculate D2E/DX2 analytically  !
 ! D3    D(2,3,4,6)            -54.5728         calculate D2E/DX2 analytically  !
 ! D4    D(10,3,4,1)          -161.9384         calculate D2E/DX2 analytically  !
 ! D5    D(10,3,4,5)           -48.886          calculate D2E/DX2 analytically  !
 ! D6    D(10,3,4,6)            77.9851         calculate D2E/DX2 analytically  !
 ! D7    D(11,3,4,1)           -55.292          calculate D2E/DX2 analytically  !
 ! D8    D(11,3,4,5)            57.7604         calculate D2E/DX2 analytically  !
 ! D9    D(11,3,4,6)          -175.3685         calculate D2E/DX2 analytically  !
 ! D10   D(2,3,10,23)          -58.0798         calculate D2E/DX2 analytically  !
 ! D11   D(2,3,10,24)         -177.5922         calculate D2E/DX2 analytically  !
 ! D12   D(2,3,10,25)           59.7405         calculate D2E/DX2 analytically  !
 ! D13   D(4,3,10,23)          179.6859         calculate D2E/DX2 analytically  !
 ! D14   D(4,3,10,24)           60.1735         calculate D2E/DX2 analytically  !
 ! D15   D(4,3,10,25)          -62.4938         calculate D2E/DX2 analytically  !
 ! D16   D(11,3,10,23)          79.9233         calculate D2E/DX2 analytically  !
 ! D17   D(11,3,10,24)         -39.589          calculate D2E/DX2 analytically  !
 ! D18   D(11,3,10,25)        -162.2564         calculate D2E/DX2 analytically  !
 ! D19   D(2,3,11,12)           -3.4956         calculate D2E/DX2 analytically  !
 ! D20   D(4,3,11,12)          110.1379         calculate D2E/DX2 analytically  !
 ! D21   D(10,3,11,12)        -145.0772         calculate D2E/DX2 analytically  !
 ! D22   D(1,4,6,7)            167.474          calculate D2E/DX2 analytically  !
 ! D23   D(1,4,6,8)            -73.4581         calculate D2E/DX2 analytically  !
 ! D24   D(1,4,6,9)             46.4856         calculate D2E/DX2 analytically  !
 ! D25   D(3,4,6,7)            -77.7537         calculate D2E/DX2 analytically  !
 ! D26   D(3,4,6,8)             41.3142         calculate D2E/DX2 analytically  !
 ! D27   D(3,4,6,9)            161.2579         calculate D2E/DX2 analytically  !
 ! D28   D(5,4,6,7)             47.5206         calculate D2E/DX2 analytically  !
 ! D29   D(5,4,6,8)            166.5885         calculate D2E/DX2 analytically  !
 ! D30   D(5,4,6,9)            -73.4678         calculate D2E/DX2 analytically  !
 ! D31   D(3,11,12,13)        -103.5116         calculate D2E/DX2 analytically  !
 ! D32   D(3,11,12,14)          78.7882         calculate D2E/DX2 analytically  !
 ! D33   D(11,12,13,15)       -177.1331         calculate D2E/DX2 analytically  !
 ! D34   D(11,12,13,18)          3.068          calculate D2E/DX2 analytically  !
 ! D35   D(14,12,13,15)          0.6589         calculate D2E/DX2 analytically  !
 ! D36   D(14,12,13,18)       -179.14           calculate D2E/DX2 analytically  !
 ! D37   D(11,12,14,16)        177.4962         calculate D2E/DX2 analytically  !
 ! D38   D(11,12,14,19)         -1.6568         calculate D2E/DX2 analytically  !
 ! D39   D(13,12,14,16)         -0.2859         calculate D2E/DX2 analytically  !
 ! D40   D(13,12,14,19)       -179.4389         calculate D2E/DX2 analytically  !
 ! D41   D(12,13,15,17)         -0.6664         calculate D2E/DX2 analytically  !
 ! D42   D(12,13,15,20)        179.7045         calculate D2E/DX2 analytically  !
 ! D43   D(18,13,15,17)        179.1338         calculate D2E/DX2 analytically  !
 ! D44   D(18,13,15,20)         -0.4954         calculate D2E/DX2 analytically  !
 ! D45   D(12,14,16,17)         -0.0743         calculate D2E/DX2 analytically  !
 ! D46   D(12,14,16,21)       -179.795          calculate D2E/DX2 analytically  !
 ! D47   D(19,14,16,17)        179.0854         calculate D2E/DX2 analytically  !
 ! D48   D(19,14,16,21)         -0.6353         calculate D2E/DX2 analytically  !
 ! D49   D(13,15,17,16)          0.2809         calculate D2E/DX2 analytically  !
 ! D50   D(13,15,17,22)       -179.8754         calculate D2E/DX2 analytically  !
 ! D51   D(20,15,17,16)        179.9118         calculate D2E/DX2 analytically  !
 ! D52   D(20,15,17,22)         -0.2446         calculate D2E/DX2 analytically  !
 ! D53   D(14,16,17,15)          0.0802         calculate D2E/DX2 analytically  !
 ! D54   D(14,16,17,22)       -179.7635         calculate D2E/DX2 analytically  !
 ! D55   D(21,16,17,15)        179.8024         calculate D2E/DX2 analytically  !
 ! D56   D(21,16,17,22)         -0.0413         calculate D2E/DX2 analytically  !
 --------------------------------------------------------------------------------
 Trust Radius=3.00D-01 FncErr=5.00D-06 GrdErr=5.00D-06 EigMax=2.50D+02 EigMin=1.00D-04
 Number of steps in this run=    134 maximum allowed number of steps=    150.
 Search for a saddle point of order  1.
 GradGradGradGradGradGradGradGradGradGradGradGradGradGradGradGradGradGrad

 Leave Link  103 at Fri Feb 14 12:11:37 2025, MaxMem=  8053063680 cpu:               0.1 elap:               0.1
 (Enter /opt/apps/g16_avx2/tar//g16/l202.exe)
                          Input orientation:                          
 ---------------------------------------------------------------------
 Center     Atomic      Atomic             Coordinates (Angstroms)
 Number     Number       Type             X           Y           Z
 ---------------------------------------------------------------------
      1          1           0       -2.326566    1.641504    0.162606
      2          8           0       -1.823772   -0.725639    1.240224
      3          6           0       -2.257745   -0.584160    0.101089
      4          7           0       -3.090357    0.987705    0.021728
      5          1           0       -3.438781    1.139293   -0.920164
      6          6           0       -4.129761    1.157628    1.037757
      7          1           0       -5.027080    0.616655    0.753504
      8          1           0       -3.753187    0.752118    1.976328
      9          1           0       -4.376399    2.211177    1.171006
     10          6           0       -3.251764   -1.517757   -0.547600
     11          8           0       -1.258660   -0.285496   -0.971088
     12          6           0        0.008670   -0.131356   -0.555206
     13          6           0        0.581659    1.131115   -0.451657
     14          6           0        0.814272   -1.226032   -0.256722
     15          6           0        1.903338    1.304921   -0.081032
     16          6           0        2.135320   -1.068935    0.122576
     17          6           0        2.683421    0.199763    0.210406
     18          9           0       -0.158784    2.208505   -0.711581
     19          9           0        0.316746   -2.452994   -0.351468
     20          9           0        2.422915    2.523947    0.003140
     21          9           0        2.883973   -2.130662    0.398185
     22          9           0        3.951251    0.354320    0.569262
     23          9           0       -2.700403   -2.750012   -0.540701
     24          1           0       -3.469956   -1.240963   -1.557886
     25          9           0       -4.398877   -1.563644    0.162700
 ---------------------------------------------------------------------
                    Distance matrix (angstroms):
                    1          2          3          4          5
     1  H    0.000000
     2  O    2.649043   0.000000
     3  C    2.227577   1.227183   0.000000
     4  N    1.015222   2.454489   1.780534   0.000000
     5  H    1.631450   3.279253   2.325531   1.015647   0.000000
     6  C    2.061926   2.984170   2.723163   1.463403   2.076354
     7  H    2.948263   3.507112   3.088174   2.103347   2.365800
     8  H    2.473023   2.539342   2.745634   2.077331   2.939119
     9  H    2.354403   3.891733   3.667060   2.114622   2.530031
    10  C    3.367687   2.421348   1.510124   2.574398   2.689553
    11  O    2.477703   2.324431   1.495639   2.441688   2.604908
    12  C    3.018545   2.633360   2.402580   3.345014   3.692243
    13  C    3.015889   3.477944   3.363021   3.705180   4.047654
    14  C    4.273577   3.074169   3.158689   4.497143   4.911556
    15  C    4.250263   4.445249   4.573446   5.004815   5.410158
    16  C    5.220777   4.128123   4.419784   5.616728   6.085571
    17  C    5.213528   4.715049   5.004159   5.830349   6.296210
    18  F    2.405197   3.897554   3.586788   3.259174   3.456169
    19  F    4.900641   3.177901   3.213309   4.856546   5.227994
    20  F    4.833395   5.488582   5.619475   5.723334   6.093376
    21  F    6.436960   4.984574   5.377471   6.749708   7.239328
    22  F    6.421308   5.913323   6.296949   7.091207   7.579390
    23  F    4.463161   2.835183   2.301903   3.799858   3.976920
    24  H    3.546272   3.287081   2.157091   2.757940   2.464402
    25  F    3.816732   2.914528   2.355341   2.870797   3.065982
                    6          7          8          9         10
     6  C    0.000000
     7  H    1.085649   0.000000
     8  H    1.089570   1.771003   0.000000
     9  H    1.090207   1.772059   1.779267   0.000000
    10  C    3.231396   3.065996   3.431322   4.257154   0.000000
    11  O    3.789629   4.241354   3.998321   4.532355   2.381233
    12  C    4.617967   5.256522   4.619606   5.262708   3.542964
    13  C    4.941309   5.759777   4.982935   5.327467   4.660564
    14  C    5.639235   6.207854   5.455389   6.387165   4.086852
    15  C    6.137725   7.014332   6.044386   6.467147   5.895784
    16  C    6.711660   7.385070   6.436392   7.366195   5.447132
    17  C    6.929752   7.740838   6.697275   7.403350   6.225020
    18  F    4.464659   5.327360   4.718649   4.618703   4.845456
    19  F    5.893892   6.261005   5.679413   6.789553   3.694239
    20  F    6.773096   7.726787   6.721390   6.905969   6.988610
    21  F    7.772668   8.382050   7.406271   8.494811   6.238384
    22  F    8.134344   8.984052   7.841967   8.553348   7.525655
    23  F    4.450196   4.292184   4.439449   5.509292   1.350000
    24  H    3.595266   3.349313   4.067340   4.492856   1.070000
    25  F    2.871144   2.344651   3.011464   3.907231   1.350000
                   11         12         13         14         15
    11  O    0.000000
    12  C    1.342700   0.000000
    13  C    2.379783   1.390278   0.000000
    14  C    2.385786   1.391547   2.376605   0.000000
    15  C    3.649638   2.424355   1.383621   2.760916   0.000000
    16  C    3.650887   2.420967   2.753875   1.383371   2.393839
    17  C    4.143840   2.801802   2.392310   2.396835   1.383777
    18  F    2.738085   2.351052   1.332886   3.598580   2.338034
    19  F    2.750251   2.350835   3.595282   1.327383   4.088072
    20  F    4.732450   3.631937   2.353093   4.088717   1.327806
    21  F    4.737188   3.629538   4.081920   2.351791   3.604792
    22  F    5.470394   4.128469   3.605529   3.608379   2.349569
    23  F    2.887507   3.767844   5.083602   3.841366   6.152090
    24  H    2.479330   3.786480   4.823493   4.477484   6.126574
    25  F    3.574926   4.689702   5.696042   5.240879   6.928635
                   16         17         18         19         20
    16  C    0.000000
    17  C    1.384819   0.000000
    18  F    4.086605   3.600449   0.000000
    19  F    2.333998   3.599163   4.699509   0.000000
    20  F    3.606352   2.347904   2.697313   5.415869   0.000000
    21  F    1.328046   2.346564   5.414640   2.693795   4.694041
    22  F    2.350061   1.326672   4.687318   4.683843   2.713593
    23  F    5.162380   6.184730   5.574578   3.037633   7.372841
    24  H    5.854286   6.562515   4.855813   4.154946   7.165004
    25  F    6.553020   7.298686   5.742113   4.826221   7.954288
                   21         22         23         24         25
    21  F    0.000000
    22  F    2.709887   0.000000
    23  F    5.696521   7.423839   0.000000
    24  H    6.707473   7.883147   1.975882   0.000000
    25  F    7.308684   8.577209   2.187935   1.981775   0.000000
 Stoichiometry    C9H6F7NO2
 Framework group  C1[X(C9H6F7NO2)]
 Deg. of freedom    69
 Full point group                 C1      NOp   1
 Largest Abelian subgroup         C1      NOp   1
 Largest concise Abelian subgroup C1      NOp   1
                         Standard orientation:                         
 ---------------------------------------------------------------------
 Center     Atomic      Atomic             Coordinates (Angstroms)
 Number     Number       Type             X           Y           Z
 ---------------------------------------------------------------------
      1          1           0       -1.612259    2.168172    0.129684
      2          8           0       -1.485873   -0.216998    1.275292
      3          6           0       -1.898489   -0.040937    0.133045
      4          7           0       -2.471082    1.640437    0.008874
      5          1           0       -2.796478    1.818508   -0.936614
      6          6           0       -3.464298    2.002536    1.020781
      7          1           0       -4.437851    1.603282    0.753528
      8          1           0       -3.151496    1.569308    1.970323
      9          1           0       -3.539534    3.085279    1.123535
     10          6           0       -3.032056   -0.822697   -0.486915
     11          8           0       -0.870915    0.064197   -0.948608
     12          6           0        0.407212    0.026611   -0.538948
     13          6           0        1.174205    1.184299   -0.472977
     14          6           0        1.030279   -1.173282   -0.209637
     15          6           0        2.508850    1.156180   -0.109195
     16          6           0        2.361696   -1.217542    0.163303
     17          6           0        3.105017   -0.050200    0.213411
     18          9           0        0.612944    2.357871   -0.763320
     19          9           0        0.343485   -2.307680   -0.267937
     20          9           0        3.216092    2.278936   -0.061260
     21          9           0        2.933644   -2.376515    0.468858
     22          9           0        4.383370   -0.089085    0.566056
     23          9           0       -2.683567   -2.126260   -0.444739
     24          1           0       -3.209374   -0.543739   -1.504579
     25          9           0       -4.167704   -0.665184    0.225822
 ---------------------------------------------------------------------
 Rotational constants (GHZ):           0.6392900           0.2425152           0.1889537
 Leave Link  202 at Fri Feb 14 12:11:37 2025, MaxMem=  8053063680 cpu:               0.1 elap:               0.1
 (Enter /opt/apps/g16_avx2/tar//g16/l301.exe)
 Standard basis: def2TZVP (5D, 7F)
 Ernie: Thresh=  0.10000D-02 Tol=  0.10000D-05 Strict=F.
 There are   720 symmetry adapted cartesian basis functions of A   symmetry.
 There are   625 symmetry adapted basis functions of A   symmetry.
   625 basis functions,  1017 primitive gaussians,   720 cartesian basis functions
    73 alpha electrons       73 beta electrons
       nuclear repulsion energy      1636.5286144952 Hartrees.
 IExCor= 1009 DFT=T Ex+Corr=PBE1PBE ExCW=0 ScaHFX=  0.250000
 ScaDFX=  0.750000  0.750000  1.000000  1.000000 ScalE2=  1.000000  1.000000
 IRadAn=  99590 IRanWt=     -1 IRanGd=            0 ICorTp=0 IEmpDi=131
 NAtoms=   25 NActive=   25 NUniq=   25 SFac= 1.00D+00 NAtFMM=   60 NAOKFM=F Big=F
 Integral buffers will be    131072 words long.
 Raffenetti 2 integral format.
 Two-electron integral symmetry is turned on.
 R6Disp:  Grimme-D3 Dispersion energy=       -0.0165545518 Hartrees.
 Nuclear repulsion after empirical dispersion term =     1636.5120599434 Hartrees.
 Force inversion solution in PCM.
 ------------------------------------------------------------------------------
 Polarizable Continuum Model (PCM)
 =================================
 Model                : PCM.
 Atomic radii         : UFF (Universal Force Field).
 Polarization charges : Total charges.
 Charge compensation  : None.
 Solution method      : Matrix inversion.
 Cavity type          : Scaled VdW (van der Waals Surface) (Alpha=1.100).
 Cavity algorithm     : GePol (No added spheres)
                        Default sphere list used, NSphG=   25.
                        Lebedev-Laikov grids with approx.  5.0 points / Ang**2.
                        Smoothing algorithm: York/Karplus (Gamma=1.0000).
                        Polarization charges: spherical gaussians, with
                                              point-specific exponents (IZeta= 3).
                        Self-potential: point-specific (ISelfS= 7).
                        Self-field    : sphere-specific E.n sum rule (ISelfD= 2).
 1st derivatives      : Analytical E(r).r(x)/FMM algorithm (CHGder, D1EAlg=3).
                        Cavity 1st derivative terms included.
 2nd derivatives      : Analytical E(r).r(xy)/FMM algorithm (CHGder, D2EAlg=3).
                        Cavity 2nd derivative terms included.
 Solvent              : Water, Eps=  78.355300 Eps(inf)=   1.777849
 ------------------------------------------------------------------------------
 GePol: Number of generator spheres                  =      25
 GePol: Total number of spheres                      =      25
 GePol: Number of exposed spheres                    =      25 (100.00%)
 GePol: Number of points                             =    2218
 GePol: Average weight of points                     =       0.13
 GePol: Minimum weight of points                     =   0.72D-08
 GePol: Maximum weight of points                     =    0.20577
 GePol: Number of points with low weight             =     113
 GePol: Fraction of low-weight points (<1% of avg)   =       5.09%
 GePol: Cavity surface area                          =    280.713 Ang**2
 GePol: Cavity volume                                =    298.936 Ang**3
 Leave Link  301 at Fri Feb 14 12:11:37 2025, MaxMem=  8053063680 cpu:               0.5 elap:               0.1
 (Enter /opt/apps/g16_avx2/tar//g16/l302.exe)
 NPDir=0 NMtPBC=     1 NCelOv=     1 NCel=       1 NClECP=     1 NCelD=      1
         NCelK=      1 NCelE2=     1 NClLst=     1 CellRange=     0.0.
 One-electron integrals computed using PRISM.
 One-electron integral symmetry used in STVInt
   1 Symmetry operations used in ECPInt.
 ECPInt:  NShTT=   27261 NPrTT=   87172 LenC2=   23593 LenP2D=   53359.
 LDataN:  DoStor=T MaxTD1= 6 Len=  172
 NBasis=   625 RedAO= T EigKep=  1.46D-05  NBF=   625
 NBsUse=   625 1.00D-06 EigRej= -1.00D+00 NBFU=   625
 Precomputing XC quadrature grid using
 IXCGrd= 4 IRadAn=       99590 IRanWt=          -1 IRanGd=           0 AccXCQ= 0.00D+00.
 Generated NRdTot=       0 NPtTot=           0 NUsed=           0 NTot=          32
 NSgBfM=   708   708   708   708   708 MxSgAt=    25 MxSgA2=    25.
 Leave Link  302 at Fri Feb 14 12:11:38 2025, MaxMem=  8053063680 cpu:               5.8 elap:               0.4
 (Enter /opt/apps/g16_avx2/tar//g16/l303.exe)
 DipDrv:  MaxL=1.
 Leave Link  303 at Fri Feb 14 12:11:38 2025, MaxMem=  8053063680 cpu:               0.8 elap:               0.1
 (Enter /opt/apps/g16_avx2/tar//g16/l401.exe)
 ExpMin= 9.52D-02 ExpMax= 3.55D+04 ExpMxC= 1.21D+03 IAcc=4 IRadAn=    199590 AccDes= 0.00D+00
 Harris functional with IExCor= 1009 and IRadAn=  199590 diagonalized for initial guess.
 HarFok:  IExCor= 1009 AccDes= 0.00D+00 IRadAn=    199590 IDoV= 1 UseB2=F ITyADJ=14
 ICtDFT=  3500011 ScaDFX=  1.000000  1.000000  1.000000  1.000000
 FoFCou: FMM=F IPFlag=           0 FMFlag=      100000 FMFlg1=           0
         NFxFlg=           0 DoJE=T BraDBF=F KetDBF=T FulRan=T
         wScrn=  0.000000 ICntrl=       500 IOpCl=  0 I1Cent=   200000004 NGrid=           0
         NMat0=    1 NMatS0=      1 NMatT0=    0 NMatD0=    1 NMtDS0=    0 NMtDT0=    0
 Petite list used in FoFCou.
 Harris En= -1249.91063975507    
 JPrj=0 DoOrth=F DoCkMO=F.
 Leave Link  401 at Fri Feb 14 12:11:41 2025, MaxMem=  8053063680 cpu:              47.8 elap:               3.0
 (Enter /opt/apps/g16_avx2/tar//g16/l502.exe)
 Integral symmetry usage will be decided dynamically.
 Closed shell SCF:
 Using DIIS extrapolation, IDIIS=  1040.
 NGot=  8053063680 LenX=  8052009241 LenY=  8051490121
 Requested convergence on RMS density matrix=1.00D-08 within 128 cycles.
 Requested convergence on MAX density matrix=1.00D-06.
 Requested convergence on             energy=1.00D-06.
 No special actions if energy rises.
 Fock matrices will be formed incrementally for  20 cycles.

 Cycle   1  Pass 1  IDiag  1:
 FoFJK:  IHMeth= 1 ICntrl=       0 DoSepK=F KAlg= 0 I1Cent=           0 FoldK=F
 IRaf= 800000000 NMat=       1 IRICut=       1 DoRegI=T DoRafI=F ISym2E= 0 IDoP0=0 IntGTp=1.
 FoFCou: FMM=F IPFlag=           0 FMFlag=      100000 FMFlg1=           0
         NFxFlg=           0 DoJE=F BraDBF=F KetDBF=F FulRan=T
         wScrn=  0.000000 ICntrl=         0 IOpCl=  0 I1Cent=           0 NGrid=           0
         NMat0=    1 NMatS0=      1 NMatT0=    0 NMatD0=    1 NMtDS0=    0 NMtDT0=    0
 Symmetry not used in FoFCou.
 Inv3:  Mode=1 IEnd=    14758572.
 Iteration    1 A*A^-1 deviation from unit magnitude is 3.11D-15 for    626.
 Iteration    1 A*A^-1 deviation from orthogonality  is 1.73D-15 for   1957    274.
 Iteration    1 A^-1*A deviation from unit magnitude is 3.11D-15 for   1343.
 Iteration    1 A^-1*A deviation from orthogonality  is 1.31D-15 for   1929   1819.
 E= -1249.64970832031    
 DIIS: error= 1.39D-02 at cycle   1 NSaved=   1.
 NSaved= 1 IEnMin= 1 EnMin= -1249.64970832031     IErMin= 1 ErrMin= 1.39D-02
 ErrMax= 1.39D-02  0.00D+00 EMaxC= 1.00D-01 BMatC= 3.42D-01 BMatP= 3.42D-01
 IDIUse=3 WtCom= 8.61D-01 WtEn= 1.39D-01
 Coeff-Com:  0.100D+01
 Coeff-En:   0.100D+01
 Coeff:      0.100D+01
 Gap=     0.258 Goal=   None    Shift=    0.000
 GapD=    0.258 DampG=1.000 DampE=0.500 DampFc=0.5000 IDamp=-1.
 Damping current iteration by 5.00D-01
 RMSDP=2.18D-03 MaxDP=2.63D-01              OVMax= 2.70D-01

 Cycle   2  Pass 1  IDiag  1:
 RMSU=  1.09D-03    CP:  1.00D+00
 E= -1249.71917071883     Delta-E=       -0.069462398516 Rises=F Damp=T
 DIIS: error= 4.91D-03 at cycle   2 NSaved=   2.
 NSaved= 2 IEnMin= 2 EnMin= -1249.71917071883     IErMin= 2 ErrMin= 4.91D-03
 ErrMax= 4.91D-03  0.00D+00 EMaxC= 1.00D-01 BMatC= 4.71D-02 BMatP= 3.42D-01
 IDIUse=3 WtCom= 9.51D-01 WtEn= 4.91D-02
 Coeff-Com:  0.127D+00 0.873D+00
 Coeff-En:   0.280D+00 0.720D+00
 Coeff:      0.135D+00 0.865D+00
 Gap=     0.296 Goal=   None    Shift=    0.000
 RMSDP=8.17D-04 MaxDP=1.06D-01 DE=-6.95D-02 OVMax= 1.76D-01

 Cycle   3  Pass 1  IDiag  1:
 RMSU=  6.13D-04    CP:  9.88D-01  5.12D-01
 E= -1249.83720503732     Delta-E=       -0.118034318493 Rises=F Damp=F
 DIIS: error= 6.40D-03 at cycle   3 NSaved=   3.
 NSaved= 3 IEnMin= 3 EnMin= -1249.83720503732     IErMin= 2 ErrMin= 4.91D-03
 ErrMax= 6.40D-03  0.00D+00 EMaxC= 1.00D-01 BMatC= 3.96D-02 BMatP= 4.71D-02
 IDIUse=3 WtCom= 9.36D-01 WtEn= 6.40D-02
 Coeff-Com: -0.477D-01 0.484D+00 0.564D+00
 Coeff-En:   0.000D+00 0.000D+00 0.100D+01
 Coeff:     -0.446D-01 0.453D+00 0.592D+00
 Gap=     0.249 Goal=   None    Shift=    0.000
 RMSDP=3.50D-04 MaxDP=2.41D-02 DE=-1.18D-01 OVMax= 6.11D-02

 Cycle   4  Pass 1  IDiag  1:
 RMSU=  3.16D-04    CP:  9.85D-01  5.97D-01  8.12D-01
 E= -1249.86184713262     Delta-E=       -0.024642095299 Rises=F Damp=F
 DIIS: error= 1.91D-03 at cycle   4 NSaved=   4.
 NSaved= 4 IEnMin= 4 EnMin= -1249.86184713262     IErMin= 4 ErrMin= 1.91D-03
 ErrMax= 1.91D-03  0.00D+00 EMaxC= 1.00D-01 BMatC= 5.07D-03 BMatP= 3.96D-02
 IDIUse=3 WtCom= 9.81D-01 WtEn= 1.91D-02
 Coeff-Com: -0.394D-01 0.143D+00 0.317D+00 0.579D+00
 Coeff-En:   0.000D+00 0.000D+00 0.906D-01 0.909D+00
 Coeff:     -0.386D-01 0.140D+00 0.313D+00 0.586D+00
 Gap=     0.247 Goal=   None    Shift=    0.000
 RMSDP=1.14D-04 MaxDP=7.49D-03 DE=-2.46D-02 OVMax= 1.73D-02

 Cycle   5  Pass 1  IDiag  1:
 RMSU=  6.77D-05    CP:  9.85D-01  6.03D-01  8.87D-01  7.48D-01
 E= -1249.86533290256     Delta-E=       -0.003485769940 Rises=F Damp=F
 DIIS: error= 4.44D-04 at cycle   5 NSaved=   5.
 NSaved= 5 IEnMin= 5 EnMin= -1249.86533290256     IErMin= 5 ErrMin= 4.44D-04
 ErrMax= 4.44D-04  0.00D+00 EMaxC= 1.00D-01 BMatC= 4.71D-04 BMatP= 5.07D-03
 IDIUse=3 WtCom= 9.96D-01 WtEn= 4.44D-03
 Coeff-Com: -0.169D-01 0.398D-01 0.116D+00 0.321D+00 0.541D+00
 Coeff-En:   0.000D+00 0.000D+00 0.000D+00 0.231D-01 0.977D+00
 Coeff:     -0.169D-01 0.396D-01 0.115D+00 0.319D+00 0.543D+00
 Gap=     0.247 Goal=   None    Shift=    0.000
 RMSDP=3.46D-05 MaxDP=2.27D-03 DE=-3.49D-03 OVMax= 4.80D-03

 Cycle   6  Pass 1  IDiag  1:
 RMSU=  1.78D-05    CP:  9.85D-01  6.07D-01  8.71D-01  7.69D-01  6.04D-01
 E= -1249.86567902148     Delta-E=       -0.000346118921 Rises=F Damp=F
 DIIS: error= 1.44D-04 at cycle   6 NSaved=   6.
 NSaved= 6 IEnMin= 6 EnMin= -1249.86567902148     IErMin= 6 ErrMin= 1.44D-04
 ErrMax= 1.44D-04  0.00D+00 EMaxC= 1.00D-01 BMatC= 2.07D-05 BMatP= 4.71D-04
 IDIUse=3 WtCom= 9.99D-01 WtEn= 1.44D-03
 Coeff-Com: -0.591D-02 0.105D-01 0.332D-01 0.114D+00 0.257D+00 0.592D+00
 Coeff-En:   0.000D+00 0.000D+00 0.000D+00 0.000D+00 0.000D+00 0.100D+01
 Coeff:     -0.590D-02 0.104D-01 0.332D-01 0.114D+00 0.256D+00 0.592D+00
 Gap=     0.247 Goal=   None    Shift=    0.000
 RMSDP=7.36D-06 MaxDP=3.88D-04 DE=-3.46D-04 OVMax= 1.13D-03

 Cycle   7  Pass 1  IDiag  1:
 RMSU=  5.51D-06    CP:  9.85D-01  6.08D-01  8.72D-01  7.62D-01  6.30D-01
                    CP:  7.84D-01
 E= -1249.86569414792     Delta-E=       -0.000015126438 Rises=F Damp=F
 DIIS: error= 3.36D-05 at cycle   7 NSaved=   7.
 NSaved= 7 IEnMin= 7 EnMin= -1249.86569414792     IErMin= 7 ErrMin= 3.36D-05
 ErrMax= 3.36D-05  0.00D+00 EMaxC= 1.00D-01 BMatC= 1.99D-06 BMatP= 2.07D-05
 IDIUse=1 WtCom= 1.00D+00 WtEn= 0.00D+00
 Coeff-Com: -0.159D-02 0.207D-02 0.646D-02 0.299D-01 0.827D-01 0.289D+00
 Coeff-Com:  0.591D+00
 Coeff:     -0.159D-02 0.207D-02 0.646D-02 0.299D-01 0.827D-01 0.289D+00
 Coeff:      0.591D+00
 Gap=     0.247 Goal=   None    Shift=    0.000
 RMSDP=2.80D-06 MaxDP=2.36D-04 DE=-1.51D-05 OVMax= 3.14D-04

 Cycle   8  Pass 1  IDiag  1:
 RMSU=  1.59D-06    CP:  9.85D-01  6.08D-01  8.72D-01  7.67D-01  6.31D-01
                    CP:  8.27D-01  7.88D-01
 E= -1249.86569554487     Delta-E=       -0.000001396955 Rises=F Damp=F
 DIIS: error= 1.42D-05 at cycle   8 NSaved=   8.
 NSaved= 8 IEnMin= 8 EnMin= -1249.86569554487     IErMin= 8 ErrMin= 1.42D-05
 ErrMax= 1.42D-05  0.00D+00 EMaxC= 1.00D-01 BMatC= 2.19D-07 BMatP= 1.99D-06
 IDIUse=1 WtCom= 1.00D+00 WtEn= 0.00D+00
 Coeff-Com: -0.159D-03-0.175D-05-0.515D-03 0.194D-02 0.117D-01 0.712D-01
 Coeff-Com:  0.289D+00 0.627D+00
 Coeff:     -0.159D-03-0.175D-05-0.515D-03 0.194D-02 0.117D-01 0.712D-01
 Coeff:      0.289D+00 0.627D+00
 Gap=     0.247 Goal=   None    Shift=    0.000
 RMSDP=7.10D-07 MaxDP=4.97D-05 DE=-1.40D-06 OVMax= 1.28D-04

 Cycle   9  Pass 1  IDiag  1:
 RMSU=  4.15D-07    CP:  9.85D-01  6.08D-01  8.72D-01  7.67D-01  6.33D-01
                    CP:  8.33D-01  8.38D-01  7.91D-01
 E= -1249.86569570778     Delta-E=       -0.000000162909 Rises=F Damp=F
 DIIS: error= 4.25D-06 at cycle   9 NSaved=   9.
 NSaved= 9 IEnMin= 9 EnMin= -1249.86569570778     IErMin= 9 ErrMin= 4.25D-06
 ErrMax= 4.25D-06  0.00D+00 EMaxC= 1.00D-01 BMatC= 1.86D-08 BMatP= 2.19D-07
 IDIUse=1 WtCom= 1.00D+00 WtEn= 0.00D+00
 Coeff-Com:  0.685D-04-0.181D-03-0.852D-03-0.196D-02-0.283D-02 0.184D-02
 Coeff-Com:  0.683D-01 0.291D+00 0.644D+00
 Coeff:      0.685D-04-0.181D-03-0.852D-03-0.196D-02-0.283D-02 0.184D-02
 Coeff:      0.683D-01 0.291D+00 0.644D+00
 Gap=     0.247 Goal=   None    Shift=    0.000
 RMSDP=2.12D-07 MaxDP=1.10D-05 DE=-1.63D-07 OVMax= 2.52D-05

 Cycle  10  Pass 1  IDiag  1:
 RMSU=  1.11D-07    CP:  9.85D-01  6.08D-01  8.72D-01  7.67D-01  6.32D-01
                    CP:  8.36D-01  8.49D-01  8.52D-01  7.55D-01
 E= -1249.86569572339     Delta-E=       -0.000000015605 Rises=F Damp=F
 DIIS: error= 4.24D-07 at cycle  10 NSaved=  10.
 NSaved=10 IEnMin=10 EnMin= -1249.86569572339     IErMin=10 ErrMin= 4.24D-07
 ErrMax= 4.24D-07  0.00D+00 EMaxC= 1.00D-01 BMatC= 4.08D-10 BMatP= 1.86D-08
 IDIUse=1 WtCom= 1.00D+00 WtEn= 0.00D+00
 Coeff-Com:  0.217D-04-0.525D-04-0.272D-03-0.647D-03-0.115D-02-0.113D-02
 Coeff-Com:  0.154D-01 0.788D-01 0.215D+00 0.694D+00
 Coeff:      0.217D-04-0.525D-04-0.272D-03-0.647D-03-0.115D-02-0.113D-02
 Coeff:      0.154D-01 0.788D-01 0.215D+00 0.694D+00
 Gap=     0.247 Goal=   None    Shift=    0.000
 RMSDP=4.56D-08 MaxDP=2.15D-06 DE=-1.56D-08 OVMax= 8.81D-06

 Cycle  11  Pass 1  IDiag  1:
 RMSU=  3.63D-08    CP:  9.85D-01  6.08D-01  8.72D-01  7.67D-01  6.32D-01
                    CP:  8.36D-01  8.51D-01  8.55D-01  7.80D-01  8.74D-01
 E= -1249.86569572362     Delta-E=       -0.000000000230 Rises=F Damp=F
 DIIS: error= 2.68D-07 at cycle  11 NSaved=  11.
 NSaved=11 IEnMin=11 EnMin= -1249.86569572362     IErMin=11 ErrMin= 2.68D-07
 ErrMax= 2.68D-07  0.00D+00 EMaxC= 1.00D-01 BMatC= 1.42D-10 BMatP= 4.08D-10
 IDIUse=1 WtCom= 1.00D+00 WtEn= 0.00D+00
 Coeff-Com:  0.397D-05-0.632D-05-0.543D-04-0.132D-03-0.370D-03-0.107D-02
 Coeff-Com: -0.867D-03 0.450D-02 0.343D-01 0.390D+00 0.573D+00
 Coeff:      0.397D-05-0.632D-05-0.543D-04-0.132D-03-0.370D-03-0.107D-02
 Coeff:     -0.867D-03 0.450D-02 0.343D-01 0.390D+00 0.573D+00
 Gap=     0.247 Goal=   None    Shift=    0.000
 RMSDP=1.64D-08 MaxDP=8.39D-07 DE=-2.30D-10 OVMax= 3.09D-06

 Cycle  12  Pass 1  IDiag  1:
 RMSU=  1.07D-08    CP:  9.85D-01  6.08D-01  8.72D-01  7.67D-01  6.32D-01
                    CP:  8.37D-01  8.51D-01  8.58D-01  7.81D-01  9.24D-01
                    CP:  7.65D-01
 E= -1249.86569572374     Delta-E=       -0.000000000123 Rises=F Damp=F
 DIIS: error= 4.91D-08 at cycle  12 NSaved=  12.
 NSaved=12 IEnMin=12 EnMin= -1249.86569572374     IErMin=12 ErrMin= 4.91D-08
 ErrMax= 4.91D-08  0.00D+00 EMaxC= 1.00D-01 BMatC= 5.88D-12 BMatP= 1.42D-10
 IDIUse=1 WtCom= 1.00D+00 WtEn= 0.00D+00
 Coeff-Com: -0.349D-06 0.229D-05-0.124D-05 0.412D-05-0.612D-04-0.277D-03
 Coeff-Com: -0.165D-02-0.521D-02-0.599D-02 0.870D-01 0.204D+00 0.722D+00
 Coeff:     -0.349D-06 0.229D-05-0.124D-05 0.412D-05-0.612D-04-0.277D-03
 Coeff:     -0.165D-02-0.521D-02-0.599D-02 0.870D-01 0.204D+00 0.722D+00
 Gap=     0.247 Goal=   None    Shift=    0.000
 RMSDP=6.03D-09 MaxDP=4.85D-07 DE=-1.23D-10 OVMax= 6.88D-07

 Error on total polarization charges =  0.00818
 SCF Done:  E(RPBE1PBE) =  -1249.86569572     A.U. after   12 cycles
            NFock= 12  Conv=0.60D-08     -V/T= 2.0036
 KE= 1.245370346747D+03 PE=-6.228574586700D+03 EE= 2.096826484286D+03
 Leave Link  502 at Fri Feb 14 12:13:32 2025, MaxMem=  8053063680 cpu:            1776.0 elap:             111.5
 (Enter /opt/apps/g16_avx2/tar//g16/l801.exe)
 DoSCS=F DFT=T ScalE2(SS,OS)=  1.000000  1.000000
 Range of M.O.s used for correlation:     1   625
 NBasis=   625 NAE=    73 NBE=    73 NFC=     0 NFV=     0
 NROrb=    625 NOA=    73 NOB=    73 NVA=   552 NVB=   552

 **** Warning!!: The largest alpha MO coefficient is  0.45546406D+02

 Leave Link  801 at Fri Feb 14 12:13:33 2025, MaxMem=  8053063680 cpu:               0.2 elap:               0.1
 (Enter /opt/apps/g16_avx2/tar//g16/l1101.exe)
 Using compressed storage, NAtomX=    25.
 Will process     26 centers per pass.
   1 Symmetry operations used in ECPInt.
 ECPInt:  NShTT=   27261 NPrTT=   87172 LenC2=   23593 LenP2D=   53359.
 LDataN:  DoStor=T MaxTD1= 7 Len=  274
 R6Disp: Adding Grimme-D3 dispersion energy 1st derivatives to the gradient.
 Leave Link 1101 at Fri Feb 14 12:13:33 2025, MaxMem=  8053063680 cpu:              13.6 elap:               0.9
 (Enter /opt/apps/g16_avx2/tar//g16/l1102.exe)
 Symmetrizing basis deriv contribution to polar:
 IMax=3 JMax=2 DiffMx= 0.00D+00
 Leave Link 1102 at Fri Feb 14 12:13:34 2025, MaxMem=  8053063680 cpu:               0.6 elap:               0.1
 (Enter /opt/apps/g16_avx2/tar//g16/l1110.exe)
 Forming Gx(P) for the SCF density, NAtomX=    25.
 Integral derivatives from FoFJK, PRISM(SPDF).
 Do as many integral derivatives as possible in FoFJK.
 G2DrvN: MDV=    8053061544.
 G2DrvN: will do    26 centers at a time, making    1 passes.
 Calling FoFCou, ICntrl=  3107 FMM=F I1Cent=   0 AccDes= 0.00D+00.
 FoFJK:  IHMeth= 1 ICntrl=    3107 DoSepK=F KAlg= 0 I1Cent=           0 FoldK=F
 IRaf=         0 NMat=       1 IRICut=       1 DoRegI=T DoRafI=F ISym2E= 0 IDoP0=0 IntGTp=1.
 FoFCou: FMM=F IPFlag=           0 FMFlag=      100000 FMFlg1=           0
         NFxFlg=           0 DoJE=F BraDBF=F KetDBF=F FulRan=T
         wScrn=  0.000000 ICntrl=      3107 IOpCl=  0 I1Cent=           0 NGrid=           0
         NMat0=    1 NMatS0=      1 NMatT0=    0 NMatD0=    1 NMtDS0=    0 NMtDT0=    0
 Symmetry not used in FoFCou.
 NEqPCM:  Using equilibrium solvation (IEInf=0, Eps=  78.3553, EpsInf=   1.7778)
 G2PCM: DoFxE=T DoFxN=T DoGrad=T DoDP/DQ/DG/TGxP=FFFF NFrqRd=   0 IEInf=0 SqF1=F DoCFld=F IF1Alg=4.
 GePol: Maximum number of non-zero 1st derivatives   =     212
 End of G2Drv F.D. properties file   721 does not exist.
 End of G2Drv F.D. properties file   722 does not exist.
 End of G2Drv F.D. properties file   788 does not exist.
 Leave Link 1110 at Fri Feb 14 12:16:29 2025, MaxMem=  8053063680 cpu:            2802.6 elap:             175.3
 (Enter /opt/apps/g16_avx2/tar//g16/l1002.exe)
 Minotr:  Closed shell wavefunction.
          IDoAtm=1111111111111111111111111
 NEqPCM:  Using equilibrium solvation (IEInf=0, Eps=  78.3553, EpsInf=   1.7778)
          Direct CPHF calculation.
          Differentiating once with respect to nuclear coordinates.
          Requested convergence is 1.0D-08 RMS, and 1.0D-07 maximum.
          Secondary convergence is 1.0D-12 RMS, and 1.0D-12 maximum.
          NewPWx=T KeepS1=F KeepF1=F KeepIn=T MapXYZ=F SortEE=F KeepMc=T.
        17426 words used for storage of precomputed grid.
 Two-electron integrals replicated using symmetry.
          MDV=    8053063680 using IRadAn=   99302.
          Solving linear equations simultaneously, MaxMat=     384.
 FoF2E skips out because all densities are zero.
 CalDSu exits because no D1Ps are significant.
 FoFJK:  IHMeth= 1 ICntrl=       0 DoSepK=F KAlg= 0 I1Cent=           0 FoldK=F
 IRaf= 780000000 NMat=      75 IRICut=     187 DoRegI=T DoRafI=T ISym2E= 2 IDoP0=3 IntGTp=3.
          There are    78 degrees of freedom in the 1st order CPHF.  IDoFFX=6 NUNeed=     0.
     72 vectors produced by pass  0 Test12= 5.17D-14 1.28D-09 XBig12= 1.48D-01 1.94D-01.
 AX will form    72 AO Fock derivatives at one time.
     72 vectors produced by pass  1 Test12= 5.17D-14 1.28D-09 XBig12= 2.80D-02 3.89D-02.
     72 vectors produced by pass  2 Test12= 5.17D-14 1.28D-09 XBig12= 6.65D-04 2.90D-03.
     72 vectors produced by pass  3 Test12= 5.17D-14 1.28D-09 XBig12= 6.25D-06 3.22D-04.
     72 vectors produced by pass  4 Test12= 5.17D-14 1.28D-09 XBig12= 2.25D-08 1.54D-05.
     72 vectors produced by pass  5 Test12= 5.17D-14 1.28D-09 XBig12= 6.08D-11 9.15D-07.
     47 vectors produced by pass  6 Test12= 5.17D-14 1.28D-09 XBig12= 1.34D-13 3.48D-08.
      5 vectors produced by pass  7 Test12= 5.17D-14 1.28D-09 XBig12= 6.28D-16 2.43D-09.
      5 vectors produced by pass  8 Test12= 5.17D-14 1.28D-09 XBig12= 1.94D-15 3.74D-09.
      5 vectors produced by pass  9 Test12= 5.17D-14 1.28D-09 XBig12= 2.89D-15 4.43D-09.
      5 vectors produced by pass 10 Test12= 5.17D-14 1.28D-09 XBig12= 6.66D-15 6.64D-09.
      5 vectors produced by pass 11 Test12= 5.17D-14 1.28D-09 XBig12= 3.22D-15 4.33D-09.
      5 vectors produced by pass 12 Test12= 5.17D-14 1.28D-09 XBig12= 3.41D-15 4.73D-09.
      5 vectors produced by pass 13 Test12= 5.17D-14 1.28D-09 XBig12= 3.06D-15 4.31D-09.
      4 vectors produced by pass 14 Test12= 5.17D-14 1.28D-09 XBig12= 1.38D-15 3.11D-09.
      4 vectors produced by pass 15 Test12= 5.17D-14 1.28D-09 XBig12= 1.77D-15 3.14D-09.
      4 vectors produced by pass 16 Test12= 5.17D-14 1.28D-09 XBig12= 2.87D-15 5.03D-09.
      2 vectors produced by pass 17 Test12= 5.17D-14 1.28D-09 XBig12= 8.73D-16 2.43D-09.
 InvSVY:  IOpt=1 It=  1 EMax= 5.55D-16
 Solved reduced A of dimension   528 with    78 vectors.
 End of Minotr F.D. properties file   721 does not exist.
 End of Minotr F.D. properties file   722 does not exist.
 End of Minotr F.D. properties file   788 does not exist.
 Leave Link 1002 at Fri Feb 14 12:28:21 2025, MaxMem=  8053063680 cpu:           11380.2 elap:             711.7
 (Enter /opt/apps/g16_avx2/tar//g16/l601.exe)
 Copying SCF densities to generalized density rwf, IOpCl= 0 IROHF=0.

 **********************************************************************

            Population analysis using the SCF Density.

 **********************************************************************

 Orbital symmetries:
       Occupied  (A) (A) (A) (A) (A) (A) (A) (A) (A) (A) (A) (A)
                 (A) (A) (A) (A) (A) (A) (A) (A) (A) (A) (A) (A)
                 (A) (A) (A) (A) (A) (A) (A) (A) (A) (A) (A) (A)
                 (A) (A) (A) (A) (A) (A) (A) (A) (A) (A) (A) (A)
                 (A) (A) (A) (A) (A) (A) (A) (A) (A) (A) (A) (A)
                 (A) (A) (A) (A) (A) (A) (A) (A) (A) (A) (A) (A)
                 (A)
       Virtual   (A) (A) (A) (A) (A) (A) (A) (A) (A) (A) (A) (A)
                 (A) (A) (A) (A) (A) (A) (A) (A) (A) (A) (A) (A)
                 (A) (A) (A) (A) (A) (A) (A) (A) (A) (A) (A) (A)
                 (A) (A) (A) (A) (A) (A) (A) (A) (A) (A) (A) (A)
                 (A) (A) (A) (A) (A) (A) (A) (A) (A) (A) (A) (A)
                 (A) (A) (A) (A) (A) (A) (A) (A) (A) (A) (A) (A)
                 (A) (A) (A) (A) (A) (A) (A) (A) (A) (A) (A) (A)
                 (A) (A) (A) (A) (A) (A) (A) (A) (A) (A) (A) (A)
                 (A) (A) (A) (A) (A) (A) (A) (A) (A) (A) (A) (A)
                 (A) (A) (A) (A) (A) (A) (A) (A) (A) (A) (A) (A)
                 (A) (A) (A) (A) (A) (A) (A) (A) (A) (A) (A) (A)
                 (A) (A) (A) (A) (A) (A) (A) (A) (A) (A) (A) (A)
                 (A) (A) (A) (A) (A) (A) (A) (A) (A) (A) (A) (A)
                 (A) (A) (A) (A) (A) (A) (A) (A) (A) (A) (A) (A)
                 (A) (A) (A) (A) (A) (A) (A) (A) (A) (A) (A) (A)
                 (A) (A) (A) (A) (A) (A) (A) (A) (A) (A) (A) (A)
                 (A) (A) (A) (A) (A) (A) (A) (A) (A) (A) (A) (A)
                 (A) (A) (A) (A) (A) (A) (A) (A) (A) (A) (A) (A)
                 (A) (A) (A) (A) (A) (A) (A) (A) (A) (A) (A) (A)
                 (A) (A) (A) (A) (A) (A) (A) (A) (A) (A) (A) (A)
                 (A) (A) (A) (A) (A) (A) (A) (A) (A) (A) (A) (A)
                 (A) (A) (A) (A) (A) (A) (A) (A) (A) (A) (A) (A)
                 (A) (A) (A) (A) (A) (A) (A) (A) (A) (A) (A) (A)
                 (A) (A) (A) (A) (A) (A) (A) (A) (A) (A) (A) (A)
                 (A) (A) (A) (A) (A) (A) (A) (A) (A) (A) (A) (A)
                 (A) (A) (A) (A) (A) (A) (A) (A) (A) (A) (A) (A)
                 (A) (A) (A) (A) (A) (A) (A) (A) (A) (A) (A) (A)
                 (A) (A) (A) (A) (A) (A) (A) (A) (A) (A) (A) (A)
                 (A) (A) (A) (A) (A) (A) (A) (A) (A) (A) (A) (A)
                 (A) (A) (A) (A) (A) (A) (A) (A) (A) (A) (A) (A)
                 (A) (A) (A) (A) (A) (A) (A) (A) (A) (A) (A) (A)
                 (A) (A) (A) (A) (A) (A) (A) (A) (A) (A) (A) (A)
                 (A) (A) (A) (A) (A) (A) (A) (A) (A) (A) (A) (A)
                 (A) (A) (A) (A) (A) (A) (A) (A) (A) (A) (A) (A)
                 (A) (A) (A) (A) (A) (A) (A) (A) (A) (A) (A) (A)
                 (A) (A) (A) (A) (A) (A) (A) (A) (A) (A) (A) (A)
                 (A) (A) (A) (A) (A) (A) (A) (A) (A) (A) (A) (A)
                 (A) (A) (A) (A) (A) (A) (A) (A) (A) (A) (A) (A)
                 (A) (A) (A) (A) (A) (A) (A) (A) (A) (A) (A) (A)
                 (A) (A) (A) (A) (A) (A) (A) (A) (A) (A) (A) (A)
                 (A) (A) (A) (A) (A) (A) (A) (A) (A) (A) (A) (A)
                 (A) (A) (A) (A) (A) (A) (A) (A) (A) (A) (A) (A)
                 (A) (A) (A) (A) (A) (A) (A) (A) (A) (A) (A) (A)
                 (A) (A) (A) (A) (A) (A) (A) (A) (A) (A) (A) (A)
                 (A) (A) (A) (A) (A) (A) (A) (A) (A) (A) (A) (A)
                 (A) (A) (A) (A) (A) (A) (A) (A) (A) (A) (A) (A)
 The electronic state is 1-A.
 Alpha  occ. eigenvalues --  -24.81876 -24.81838 -24.81742 -24.81656 -24.81164
 Alpha  occ. eigenvalues --  -24.79897 -24.79368 -19.25254 -19.17245 -14.46009
 Alpha  occ. eigenvalues --  -10.39085 -10.37770 -10.34513 -10.34310 -10.34221
 Alpha  occ. eigenvalues --  -10.34060 -10.33893 -10.31685 -10.25987  -1.31070
 Alpha  occ. eigenvalues --   -1.30976  -1.30410  -1.29778  -1.29009  -1.28622
 Alpha  occ. eigenvalues --   -1.24974  -1.13074  -1.04855  -0.98092  -0.93040
 Alpha  occ. eigenvalues --   -0.81777  -0.81159  -0.77879  -0.72597  -0.69965
 Alpha  occ. eigenvalues --   -0.69797  -0.65369  -0.62857  -0.62724  -0.60875
 Alpha  occ. eigenvalues --   -0.59437  -0.59217  -0.58448  -0.57705  -0.57019
 Alpha  occ. eigenvalues --   -0.56087  -0.55567  -0.55105  -0.53005  -0.52881
 Alpha  occ. eigenvalues --   -0.51946  -0.50111  -0.49760  -0.49296  -0.49172
 Alpha  occ. eigenvalues --   -0.47590  -0.47108  -0.46591  -0.45987  -0.44866
 Alpha  occ. eigenvalues --   -0.44788  -0.43846  -0.42720  -0.41857  -0.41087
 Alpha  occ. eigenvalues --   -0.40817  -0.39083  -0.37395  -0.34213  -0.30661
 Alpha  occ. eigenvalues --   -0.28405  -0.27478  -0.27089
 Alpha virt. eigenvalues --   -0.02355  -0.01539  -0.01305   0.03581   0.04691
 Alpha virt. eigenvalues --    0.07011   0.07450   0.08592   0.09880   0.10189
 Alpha virt. eigenvalues --    0.12023   0.12320   0.13556   0.13945   0.14707
 Alpha virt. eigenvalues --    0.16170   0.16783   0.17818   0.18389   0.19337
 Alpha virt. eigenvalues --    0.20468   0.20544   0.21042   0.22188   0.23306
 Alpha virt. eigenvalues --    0.23624   0.23836   0.24863   0.25594   0.26039
 Alpha virt. eigenvalues --    0.27631   0.28297   0.28712   0.29029   0.29224
 Alpha virt. eigenvalues --    0.30278   0.31340   0.32019   0.32403   0.32901
 Alpha virt. eigenvalues --    0.34257   0.35141   0.36224   0.36618   0.37598
 Alpha virt. eigenvalues --    0.38779   0.39119   0.39408   0.40001   0.40523
 Alpha virt. eigenvalues --    0.40884   0.41247   0.42314   0.43156   0.43275
 Alpha virt. eigenvalues --    0.44032   0.44227   0.44680   0.45272   0.46247
 Alpha virt. eigenvalues --    0.46812   0.47114   0.48146   0.48612   0.49618
 Alpha virt. eigenvalues --    0.52042   0.52199   0.53152   0.53406   0.55200
 Alpha virt. eigenvalues --    0.55762   0.56372   0.57620   0.59283   0.60583
 Alpha virt. eigenvalues --    0.61822   0.62116   0.62730   0.63734   0.65126
 Alpha virt. eigenvalues --    0.65941   0.67420   0.68312   0.69184   0.70341
 Alpha virt. eigenvalues --    0.70645   0.71590   0.72476   0.73129   0.73892
 Alpha virt. eigenvalues --    0.74413   0.75792   0.77150   0.77862   0.78729
 Alpha virt. eigenvalues --    0.79910   0.80279   0.81565   0.82239   0.84041
 Alpha virt. eigenvalues --    0.84127   0.84803   0.84878   0.86408   0.86678
 Alpha virt. eigenvalues --    0.86988   0.87839   0.88188   0.88980   0.90618
 Alpha virt. eigenvalues --    0.91484   0.92380   0.94006   0.94872   0.95016
 Alpha virt. eigenvalues --    0.96724   0.98115   0.99231   0.99623   0.99942
 Alpha virt. eigenvalues --    1.00304   1.02347   1.02869   1.04171   1.05394
 Alpha virt. eigenvalues --    1.05656   1.06745   1.09511   1.10014   1.11061
 Alpha virt. eigenvalues --    1.12308   1.12490   1.13420   1.14435   1.15931
 Alpha virt. eigenvalues --    1.18076   1.19005   1.21021   1.21553   1.23597
 Alpha virt. eigenvalues --    1.24976   1.27103   1.28004   1.30132   1.30791
 Alpha virt. eigenvalues --    1.32505   1.33756   1.34849   1.37505   1.39078
 Alpha virt. eigenvalues --    1.39386   1.40171   1.42468   1.44677   1.45500
 Alpha virt. eigenvalues --    1.45540   1.46682   1.47344   1.48644   1.51692
 Alpha virt. eigenvalues --    1.53068   1.54371   1.54529   1.55416   1.57080
 Alpha virt. eigenvalues --    1.58091   1.60993   1.62220   1.62621   1.64903
 Alpha virt. eigenvalues --    1.65853   1.69301   1.72077   1.72211   1.72755
 Alpha virt. eigenvalues --    1.73997   1.74424   1.75434   1.77380   1.78961
 Alpha virt. eigenvalues --    1.79177   1.80802   1.82278   1.83404   1.84086
 Alpha virt. eigenvalues --    1.86277   1.87601   1.88763   1.90454   1.92355
 Alpha virt. eigenvalues --    1.94179   1.94629   1.95048   1.95339   1.96502
 Alpha virt. eigenvalues --    1.98619   1.99093   1.99664   2.00639   2.02385
 Alpha virt. eigenvalues --    2.04032   2.04862   2.05868   2.06556   2.07212
 Alpha virt. eigenvalues --    2.08881   2.09221   2.10807   2.13990   2.15601
 Alpha virt. eigenvalues --    2.15855   2.16078   2.18356   2.18608   2.19996
 Alpha virt. eigenvalues --    2.21087   2.21919   2.22067   2.25358   2.27215
 Alpha virt. eigenvalues --    2.27475   2.28621   2.30622   2.31482   2.33146
 Alpha virt. eigenvalues --    2.33586   2.34157   2.35697   2.36790   2.38005
 Alpha virt. eigenvalues --    2.39929   2.41548   2.42127   2.43487   2.44387
 Alpha virt. eigenvalues --    2.45214   2.47155   2.48018   2.49521   2.50396
 Alpha virt. eigenvalues --    2.52193   2.54940   2.56795   2.57127   2.58381
 Alpha virt. eigenvalues --    2.59662   2.60533   2.60728   2.62175   2.62653
 Alpha virt. eigenvalues --    2.63325   2.64036   2.65578   2.66870   2.68305
 Alpha virt. eigenvalues --    2.70625   2.71170   2.73211   2.75863   2.76954
 Alpha virt. eigenvalues --    2.78645   2.79209   2.79952   2.80873   2.82582
 Alpha virt. eigenvalues --    2.82920   2.84483   2.85189   2.85739   2.87281
 Alpha virt. eigenvalues --    2.88275   2.88632   2.89205   2.90620   2.91010
 Alpha virt. eigenvalues --    2.91398   2.93316   2.94285   2.94747   2.96099
 Alpha virt. eigenvalues --    2.97435   2.98278   3.00000   3.00508   3.01616
 Alpha virt. eigenvalues --    3.04059   3.04634   3.04981   3.06808   3.08034
 Alpha virt. eigenvalues --    3.08869   3.10513   3.10924   3.11346   3.12017
 Alpha virt. eigenvalues --    3.13420   3.14997   3.16213   3.17479   3.18035
 Alpha virt. eigenvalues --    3.19378   3.19805   3.20184   3.20270   3.21067
 Alpha virt. eigenvalues --    3.21671   3.22288   3.23598   3.24636   3.25358
 Alpha virt. eigenvalues --    3.26663   3.28511   3.29827   3.31170   3.32528
 Alpha virt. eigenvalues --    3.35549   3.36240   3.36817   3.37957   3.39365
 Alpha virt. eigenvalues --    3.40340   3.40808   3.43386   3.44044   3.44742
 Alpha virt. eigenvalues --    3.45560   3.45883   3.46450   3.46996   3.48826
 Alpha virt. eigenvalues --    3.49734   3.50802   3.52031   3.53867   3.55082
 Alpha virt. eigenvalues --    3.56040   3.56560   3.58311   3.59824   3.61010
 Alpha virt. eigenvalues --    3.63522   3.65594   3.67272   3.69149   3.71177
 Alpha virt. eigenvalues --    3.71765   3.73381   3.74724   3.75980   3.77905
 Alpha virt. eigenvalues --    3.81690   3.82270   3.83834   3.85389   3.87127
 Alpha virt. eigenvalues --    3.87835   3.89599   3.90954   3.92848   3.95743
 Alpha virt. eigenvalues --    3.96659   3.97912   4.00113   4.01569   4.03304
 Alpha virt. eigenvalues --    4.06088   4.07416   4.08798   4.09624   4.11426
 Alpha virt. eigenvalues --    4.12850   4.13502   4.14302   4.14873   4.16220
 Alpha virt. eigenvalues --    4.17492   4.19170   4.21096   4.21737   4.23413
 Alpha virt. eigenvalues --    4.23447   4.28151   4.31200   4.31772   4.35978
 Alpha virt. eigenvalues --    4.37892   4.39477   4.41510   4.44193   4.46232
 Alpha virt. eigenvalues --    4.49343   4.52264   4.53889   4.59370   4.61174
 Alpha virt. eigenvalues --    4.66893   4.71350   4.72018   4.78987   4.81723
 Alpha virt. eigenvalues --    4.84407   4.86220   4.86597   4.88090   4.89768
 Alpha virt. eigenvalues --    4.91736   4.93507   5.00526   5.03930   5.08675
 Alpha virt. eigenvalues --    5.13736   5.14713   5.16212   5.20765   5.24599
 Alpha virt. eigenvalues --    5.26187   5.30299   5.34231   5.37324   5.39099
 Alpha virt. eigenvalues --    5.42380   5.43969   5.45723   5.49008   5.54579
 Alpha virt. eigenvalues --    5.56715   5.59545   5.65760   5.69559   5.77621
 Alpha virt. eigenvalues --    5.83983   5.86967   5.93539   6.06754   6.19819
 Alpha virt. eigenvalues --    6.31658   6.37444   6.40248   6.47486   6.50175
 Alpha virt. eigenvalues --    6.58683   6.73108   6.76662   6.84644   6.84924
 Alpha virt. eigenvalues --    6.85240   6.85406   6.85780   6.86143   6.86266
 Alpha virt. eigenvalues --    6.86492   6.86719   6.86959   6.87068   6.87082
 Alpha virt. eigenvalues --    6.88058   6.88664   6.89412   6.90516   6.91420
 Alpha virt. eigenvalues --    6.93889   6.95440   6.96283   6.97575   7.00548
 Alpha virt. eigenvalues --    7.00807   7.02604   7.05255   7.06678   7.06870
 Alpha virt. eigenvalues --    7.09036   7.10062   7.10235   7.12876   7.14554
 Alpha virt. eigenvalues --    7.16353   7.17087   7.20367   7.23763   7.25619
 Alpha virt. eigenvalues --    7.26792   7.28040   7.29291   7.29525   7.30800
 Alpha virt. eigenvalues --    7.33633   7.36416   7.37719   7.39182   7.41502
 Alpha virt. eigenvalues --    7.43688   7.46784   7.50621   7.55933   7.66865
 Alpha virt. eigenvalues --    7.67579   7.75467   8.08986   8.30547   8.32697
 Alpha virt. eigenvalues --    8.33603   8.35707   8.37383   8.38499   8.42468
 Alpha virt. eigenvalues --    8.42937   8.43740   8.47788   8.53872   8.56391
 Alpha virt. eigenvalues --    8.58707   8.69308   8.72724   8.74770   8.76299
 Alpha virt. eigenvalues --    8.77170   8.79932   8.80760   8.83227   8.87205
 Alpha virt. eigenvalues --    8.87599   8.89197   8.92796   8.94324   8.96661
 Alpha virt. eigenvalues --    9.01385   9.02277   9.03416   9.05443   9.07297
 Alpha virt. eigenvalues --    9.09634   9.12387   9.40011  22.27294  22.44694
 Alpha virt. eigenvalues --   22.69104  22.97205  22.98028  23.08812  23.13505
 Alpha virt. eigenvalues --   23.14360  23.75128  32.21514  44.21322  44.57875
 Alpha virt. eigenvalues --   57.19553  57.29417  57.34444  57.39954  57.46188
 Alpha virt. eigenvalues --   57.53591  57.64977
          Condensed to atoms (all electrons):
               1          2          3          4          5          6
     1  H    0.420310   0.004120  -0.003898   0.345007  -0.020899  -0.019522
     2  O    0.004120   7.978506   0.671074  -0.090784   0.003879  -0.007999
     3  C   -0.003898   0.671074   4.900424   0.080207   0.000199  -0.024662
     4  N    0.345007  -0.090784   0.080207   6.381138   0.343146   0.281079
     5  H   -0.020899   0.003879   0.000199   0.343146   0.414431  -0.021236
     6  C   -0.019522  -0.007999  -0.024662   0.281079  -0.021236   4.890569
     7  H    0.006240   0.000352  -0.003008  -0.026159  -0.006428   0.407569
     8  H   -0.002398   0.018105   0.001927  -0.045072   0.006836   0.406491
     9  H   -0.008634  -0.000350   0.002736  -0.022377  -0.002873   0.403194
    10  C    0.001840  -0.041723   0.321025  -0.003113  -0.002703  -0.003773
    11  O   -0.002016  -0.090759   0.188329  -0.037699   0.002597   0.003613
    12  C   -0.004679  -0.018038  -0.131612   0.028449  -0.000955  -0.000580
    13  C   -0.000663   0.024331   0.016146  -0.017159   0.001784   0.000636
    14  C    0.000520   0.022853  -0.031559   0.005509  -0.000329  -0.000133
    15  C   -0.000959  -0.002552   0.001863  -0.000152   0.000052   0.000098
    16  C    0.000003  -0.004911  -0.001262   0.000365  -0.000025  -0.000017
    17  C    0.000031   0.000100   0.000496  -0.000154   0.000007  -0.000000
    18  F    0.011137  -0.000379  -0.000718  -0.002852   0.000147  -0.000128
    19  F   -0.000003  -0.002175   0.004179  -0.000039   0.000001   0.000006
    20  F   -0.000017  -0.000001   0.000027  -0.000001  -0.000000   0.000000
    21  F   -0.000000   0.000000   0.000012  -0.000000   0.000000   0.000000
    22  F    0.000000  -0.000000  -0.000001  -0.000000   0.000000  -0.000000
    23  F   -0.000117  -0.001595  -0.070599   0.002423  -0.000052  -0.000195
    24  H   -0.000340   0.004492  -0.088532   0.003160  -0.001445   0.001771
    25  F   -0.000040   0.000406  -0.066932   0.003611   0.000177   0.000394
               7          8          9         10         11         12
     1  H    0.006240  -0.002398  -0.008634   0.001840  -0.002016  -0.004679
     2  O    0.000352   0.018105  -0.000350  -0.041723  -0.090759  -0.018038
     3  C   -0.003008   0.001927   0.002736   0.321025   0.188329  -0.131612
     4  N   -0.026159  -0.045072  -0.022377  -0.003113  -0.037699   0.028449
     5  H   -0.006428   0.006836  -0.002873  -0.002703   0.002597  -0.000955
     6  C    0.407569   0.406491   0.403194  -0.003773   0.003613  -0.000580
     7  H    0.492042  -0.018733  -0.020699   0.000298  -0.000121   0.000061
     8  H   -0.018733   0.499572  -0.022669  -0.002337   0.000815  -0.000815
     9  H   -0.020699  -0.022669   0.504750   0.000491  -0.000034   0.000169
    10  C    0.000298  -0.002337   0.000491   4.427604  -0.039875  -0.001648
    11  O   -0.000121   0.000815  -0.000034  -0.039875   8.049537   0.261891
    12  C    0.000061  -0.000815   0.000169  -0.001648   0.261891   5.427908
    13  C    0.000035   0.000390  -0.000133  -0.000906  -0.028474   0.154945
    14  C   -0.000004  -0.000155   0.000006   0.001232  -0.021656   0.252917
    15  C   -0.000001   0.000007  -0.000007  -0.000274   0.007390   0.005182
    16  C   -0.000001  -0.000002   0.000001   0.000971   0.009200  -0.027852
    17  C    0.000000   0.000006  -0.000001  -0.000092   0.001600   0.000260
    18  F   -0.000011   0.000013   0.000016  -0.000015  -0.001043  -0.039182
    19  F    0.000000   0.000001   0.000000   0.001962   0.002049  -0.065780
    20  F   -0.000000  -0.000000   0.000000   0.000000  -0.000054   0.009462
    21  F    0.000000  -0.000000  -0.000000  -0.000003  -0.000061   0.009756
    22  F   -0.000000  -0.000000   0.000000   0.000000  -0.000001  -0.001027
    23  F    0.000080  -0.000015   0.000008   0.327805   0.002483  -0.000046
    24  H   -0.000782  -0.000264   0.000154   0.449898   0.007893  -0.000139
    25  F    0.002392  -0.001311   0.000883   0.315741   0.002375   0.000264
              13         14         15         16         17         18
     1  H   -0.000663   0.000520  -0.000959   0.000003   0.000031   0.011137
     2  O    0.024331   0.022853  -0.002552  -0.004911   0.000100  -0.000379
     3  C    0.016146  -0.031559   0.001863  -0.001262   0.000496  -0.000718
     4  N   -0.017159   0.005509  -0.000152   0.000365  -0.000154  -0.002852
     5  H    0.001784  -0.000329   0.000052  -0.000025   0.000007   0.000147
     6  C    0.000636  -0.000133   0.000098  -0.000017  -0.000000  -0.000128
     7  H    0.000035  -0.000004  -0.000001  -0.000001   0.000000  -0.000011
     8  H    0.000390  -0.000155   0.000007  -0.000002   0.000006   0.000013
     9  H   -0.000133   0.000006  -0.000007   0.000001  -0.000001   0.000016
    10  C   -0.000906   0.001232  -0.000274   0.000971  -0.000092  -0.000015
    11  O   -0.028474  -0.021656   0.007390   0.009200   0.001600  -0.001043
    12  C    0.154945   0.252917   0.005182  -0.027852   0.000260  -0.039182
    13  C    5.242609   0.019155   0.296578  -0.017500  -0.061211   0.246385
    14  C    0.019155   5.055200  -0.001039   0.341316  -0.077440   0.005631
    15  C    0.296578  -0.001039   4.982230  -0.047742   0.389991  -0.030137
    16  C   -0.017500   0.341316  -0.047742   4.997668   0.387152  -0.000401
    17  C   -0.061211  -0.077440   0.389991   0.387152   4.985739   0.006635
    18  F    0.246385   0.005631  -0.030137  -0.000401   0.006635   8.990509
    19  F    0.005622   0.294842  -0.001150  -0.038298   0.007316  -0.000030
    20  F   -0.054020  -0.001119   0.294605   0.006996  -0.044500   0.000627
    21  F   -0.000886  -0.051123   0.007305   0.289796  -0.044612   0.000000
    22  F    0.008890   0.008015  -0.045635  -0.044789   0.285714  -0.000027
    23  F   -0.000116   0.002943   0.000006   0.000597  -0.000008   0.000000
    24  H   -0.001755   0.000705   0.000035   0.000096  -0.000015   0.000012
    25  F   -0.000073   0.000087  -0.000000   0.000006  -0.000000   0.000000
              19         20         21         22         23         24
     1  H   -0.000003  -0.000017  -0.000000   0.000000  -0.000117  -0.000340
     2  O   -0.002175  -0.000001   0.000000  -0.000000  -0.001595   0.004492
     3  C    0.004179   0.000027   0.000012  -0.000001  -0.070599  -0.088532
     4  N   -0.000039  -0.000001  -0.000000  -0.000000   0.002423   0.003160
     5  H    0.000001  -0.000000   0.000000   0.000000  -0.000052  -0.001445
     6  C    0.000006   0.000000   0.000000  -0.000000  -0.000195   0.001771
     7  H    0.000000  -0.000000   0.000000  -0.000000   0.000080  -0.000782
     8  H    0.000001  -0.000000  -0.000000  -0.000000  -0.000015  -0.000264
     9  H    0.000000   0.000000  -0.000000   0.000000   0.000008   0.000154
    10  C    0.001962   0.000000  -0.000003   0.000000   0.327805   0.449898
    11  O    0.002049  -0.000054  -0.000061  -0.000001   0.002483   0.007893
    12  C   -0.065780   0.009462   0.009756  -0.001027  -0.000046  -0.000139
    13  C    0.005622  -0.054020  -0.000886   0.008890  -0.000116  -0.001755
    14  C    0.294842  -0.001119  -0.051123   0.008015   0.002943   0.000705
    15  C   -0.001150   0.294605   0.007305  -0.045635   0.000006   0.000035
    16  C   -0.038298   0.006996   0.289796  -0.044789   0.000597   0.000096
    17  C    0.007316  -0.044500  -0.044612   0.285714  -0.000008  -0.000015
    18  F   -0.000030   0.000627   0.000000  -0.000027   0.000000   0.000012
    19  F    8.963955   0.000000   0.000656  -0.000028  -0.000591  -0.000194
    20  F    0.000000   8.958769  -0.000028   0.001150   0.000000  -0.000000
    21  F    0.000656  -0.000028   8.960551   0.001100  -0.000000   0.000000
    22  F   -0.000028   0.001150   0.001100   8.956491   0.000000  -0.000000
    23  F   -0.000591   0.000000  -0.000000   0.000000   9.017058  -0.043794
    24  H   -0.000194  -0.000000   0.000000  -0.000000  -0.043794   0.599317
    25  F    0.000000   0.000000  -0.000000  -0.000000  -0.045985  -0.046157
              25
     1  H   -0.000040
     2  O    0.000406
     3  C   -0.066932
     4  N    0.003611
     5  H    0.000177
     6  C    0.000394
     7  H    0.002392
     8  H   -0.001311
     9  H    0.000883
    10  C    0.315741
    11  O    0.002375
    12  C    0.000264
    13  C   -0.000073
    14  C    0.000087
    15  C   -0.000000
    16  C    0.000006
    17  C   -0.000000
    18  F    0.000000
    19  F    0.000000
    20  F    0.000000
    21  F   -0.000000
    22  F   -0.000000
    23  F   -0.045985
    24  H   -0.046157
    25  F    9.024699
 Mulliken charges:
               1
     1  H    0.274976
     2  O   -0.466955
     3  C    0.234139
     4  N   -0.228534
     5  H    0.283690
     6  C   -0.317173
     7  H    0.166878
     8  H    0.159609
     9  H    0.165369
    10  C    0.247594
    11  O   -0.317979
    12  C    0.141088
    13  C    0.165391
    14  C    0.173625
    15  C    0.144307
    16  C    0.148633
    17  C    0.162987
    18  F   -0.186189
    19  F   -0.172301
    20  F   -0.171897
    21  F   -0.172463
    22  F   -0.169853
    23  F   -0.190289
    24  H    0.115884
    25  F   -0.190537
 Sum of Mulliken charges =  -0.00000
 Mulliken charges with hydrogens summed into heavy atoms:
               1
     2  O   -0.466955
     3  C    0.234139
     4  N    0.330132
     6  C    0.174683
    10  C    0.363479
    11  O   -0.317979
    12  C    0.141088
    13  C    0.165391
    14  C    0.173625
    15  C    0.144307
    16  C    0.148633
    17  C    0.162987
    18  F   -0.186189
    19  F   -0.172301
    20  F   -0.171897
    21  F   -0.172463
    22  F   -0.169853
    23  F   -0.190289
    25  F   -0.190537
 APT charges:
               1
     1  H    0.231780
     2  O   -0.442719
     3  C    0.140363
     4  N   -0.516166
     5  H    0.648997
     6  C   -1.371322
     7  H    0.668603
     8  H    0.202808
     9  H    0.692137
    10  C   -0.432844
    11  O   -0.246946
    12  C   -0.166978
    13  C   -0.139392
    14  C   -0.171243
    15  C   -0.005942
    16  C   -0.022307
    17  C    0.059494
    18  F   -0.042117
    19  F   -0.037008
    20  F    0.151149
    21  F    0.127812
    22  F    0.235418
    23  F   -0.082290
    24  H    0.420155
    25  F    0.098561
 Sum of APT charges =  -0.00000
 APT charges with hydrogens summed into heavy atoms:
               1
     2  O   -0.442719
     3  C    0.140363
     4  N    0.364611
     6  C    0.192225
    10  C   -0.012689
    11  O   -0.246946
    12  C   -0.166978
    13  C   -0.139392
    14  C   -0.171243
    15  C   -0.005942
    16  C   -0.022307
    17  C    0.059494
    18  F   -0.042117
    19  F   -0.037008
    20  F    0.151149
    21  F    0.127812
    22  F    0.235418
    23  F   -0.082290
    25  F    0.098561
 Electronic spatial extent (au):  <R**2>=           5187.6501
 Charge=             -0.0000 electrons
 Dipole moment (field-independent basis, Debye):
    X=             -4.5808    Y=              6.8965    Z=             -3.1744  Tot=              8.8669
 Quadrupole moment (field-independent basis, Debye-Ang):
   XX=            -96.6469   YY=           -102.1652   ZZ=           -103.3756
   XY=            -18.2696   XZ=              5.0647   YZ=              2.8555
 Traceless Quadrupole moment (field-independent basis, Debye-Ang):
   XX=              4.0824   YY=             -1.4360   ZZ=             -2.6464
   XY=            -18.2696   XZ=              5.0647   YZ=              2.8555
 Octapole moment (field-independent basis, Debye-Ang**2):
  XXX=            -72.5938  YYY=             21.4294  ZZZ=             -8.0393  XYY=            -32.1078
  XXY=             47.3731  XXZ=            -24.4432  XZZ=             -1.3806  YZZ=              0.5915
  YYZ=              3.8305  XYZ=             -2.9859
 Hexadecapole moment (field-independent basis, Debye-Ang**3):
 XXXX=          -4092.6197 YYYY=          -1366.1420 ZZZZ=           -311.6250 XXXY=           -129.3162
 XXXZ=             38.0004 YYYX=            -45.3201 YYYZ=              0.8209 ZZZX=             39.4394
 ZZZY=             -8.4654 XXYY=           -878.7535 XXZZ=           -685.6083 YYZZ=           -269.7548
 XXYZ=             20.4102 YYXZ=             -4.3315 ZZXY=              1.3855
 N-N= 1.636512059943D+03 E-N=-6.228574571593D+03  KE= 1.245370346747D+03
  Exact polarizability:   0.000   0.000   0.000   0.000   0.000   0.000
 Approx polarizability: 204.327  -4.508 201.272  17.470 -11.311 134.377
 No NMR shielding tensors so no spin-rotation constants.
 Leave Link  601 at Fri Feb 14 12:28:21 2025, MaxMem=  8053063680 cpu:               3.3 elap:               0.3
 (Enter /opt/apps/g16_avx2/tar//g16/l701.exe)
 ... and contract with generalized density number  0.
 Compute integral second derivatives.
 R6Disp: Adding Grimme-D3 dispersion energy 2nd derivatives to the Hessian.
   1 Symmetry operations used in ECPInt.
 ECPInt:  NShTT=   27261 NPrTT=   87172 LenC2=   23593 LenP2D=   53359.
 LDataN:  DoStor=T MaxTD1= 8 Len=  415
 D2PCM: PCM CHGder 2nd derivatives, FixD1E=F FixD2E=F DoIter=F DoCFld=F I1PDM=0
 GePol: Maximum number of non-zero 2nd derivatives   =     212
 Leave Link  701 at Fri Feb 14 12:28:29 2025, MaxMem=  8053063680 cpu:             125.5 elap:               7.9
 (Enter /opt/apps/g16_avx2/tar//g16/l702.exe)
 L702 exits ... SP integral derivatives will be done elsewhere.
 Leave Link  702 at Fri Feb 14 12:28:29 2025, MaxMem=  8053063680 cpu:               0.1 elap:               0.1
 (Enter /opt/apps/g16_avx2/tar//g16/l703.exe)
 Integral derivatives from FoFJK, PRISM(SPDF).
 Compute integral second derivatives, UseDBF=F ICtDFT=           0.
 Calling FoFJK, ICntrl=    100147 FMM=F ISym2X=0 I1Cent= 0 IOpClX= 0 NMat=1 NMatS=1 NMatT=0.
 FoFJK:  IHMeth= 1 ICntrl=  100147 DoSepK=F KAlg= 0 I1Cent=           0 FoldK=F
 IRaf=         0 NMat=       1 IRICut=       1 DoRegI=T DoRafI=F ISym2E= 0 IDoP0=0 IntGTp=1.
 FoFCou: FMM=F IPFlag=           0 FMFlag=      100000 FMFlg1=         800
         NFxFlg=           0 DoJE=F BraDBF=F KetDBF=F FulRan=T
         wScrn=  0.000000 ICntrl=    100147 IOpCl=  0 I1Cent=           0 NGrid=           0
         NMat0=    1 NMatS0=      1 NMatT0=    0 NMatD0=    1 NMtDS0=    0 NMtDT0=    0
[...]
 0.24858092,0.02863000,-0.02497751,-0.31181357,0.00476392,0.00955906,0.
 73361697,-0.00007452,0.00007442,0.00001498,-0.00006914,-0.00000491,-0.
 00057472,-0.00062046,-0.00006430,0.00167748,0.00022272,-0.00016507,-0.
 00007706,0.00000412,-0.00001752,-0.00003312,0.00000547,-0.00005815,0.0
 0010626,0.00000652,0.00000322,-0.00001214,-0.00000364,0.00001803,-0.00
 000245,0.00002299,-0.00001502,-0.00003726,-0.00010538,-0.00026598,-0.0
 0023736,0.00298807,0.00019664,-0.00282254,-0.00458526,0.00785158,0.005
 47510,-0.01651510,0.00194864,-0.00509018,0.00320799,-0.01315375,0.0023
 5940,-0.04531415,0.06252193,-0.07932878,-0.02319827,-0.02887550,-0.066
 67119,0.18683674,-0.02909574,0.19098253,0.00084099,-0.00093962,0.00061
 299,0.00100389,-0.00042020,0.00018681,-0.00284846,0.00233757,0.0007776
 0,-0.00088956,-0.00063126,-0.00035670,-0.00035597,-0.00056120,0.000410
 25,-0.00011427,-0.00076515,-0.00058917,-0.00010619,0.00008879,0.000335
 28,0.00004205,0.00007032,0.00006072,0.00007252,0.00008059,-0.00002359,
 -0.00008265,-0.00021673,-0.00022187,0.00711442,-0.00185557,0.00339230,
 0.00224141,-0.00029046,-0.00187569,-0.16481164,0.12280447,-0.04860280,
 -0.00455086,-0.00384795,-0.00300661,-0.03182368,0.05198994,-0.01583185
 ,0.00365757,-0.00114984,0.00223406,0.00088711,-0.00832934,-0.00066960,
 0.19235194,-0.00295052,-0.00159880,0.00061829,-0.00115705,0.00017921,0
 .00066105,0.00324749,-0.00045217,-0.00219552,-0.00076223,0.00112700,0.
 00009221,0.00001061,0.00016035,0.00001916,-0.00011249,0.00030463,-0.00
 004067,0.00003333,-0.00002058,-0.00003308,0.00001173,-0.00007119,-0.00
 001636,-0.00008743,0.00000778,0.00009700,0.00046444,0.00056675,0.00036
 954,-0.00238172,0.00393651,0.00066619,0.04156948,-0.04715973,0.0162148
 6,0.12417785,-0.23890410,0.05119479,-0.00669438,0.00287553,-0.00268553
 ,0.00741861,-0.01307487,0.00320075,-0.00126762,0.00460050,-0.00073704,
 -0.00493217,-0.00289344,-0.00128384,-0.16462612,0.29163800,0.00109464,
 0.00064359,-0.00065362,-0.00036821,-0.00004788,-0.00049285,0.00005620,
 -0.00004398,0.00164605,0.00049894,-0.00013804,0.00026743,0.00010352,0.
 00003110,-0.00008324,-0.00004885,-0.00010365,0.00009121,-0.00001081,0.
 00000722,0.00000225,-0.00003122,0.00000387,-0.00000656,0.00001026,-0.0
 0000266,-0.00003347,-0.00001617,-0.00022508,-0.00028950,0.00494174,-0.
 00127428,-0.00440094,-0.00513242,0.00175647,0.00588361,-0.04933551,0.0
 5254356,-0.05510313,-0.00300799,-0.00107636,0.00416233,-0.01355249,0.0
 1824768,0.00288736,0.00225630,-0.00075074,-0.00203888,-0.00096524,-0.0
 0240959,0.00426392,0.06350627,-0.06921041,0.04748918,-0.00010835,0.000
 01230,0.00000968,-0.00117677,0.00197350,-0.00076599,0.00058444,-0.0021
 8045,0.00215235,-0.00025767,0.00055137,-0.00024051,-0.00001580,0.00005
 521,0.00000910,0.00003891,-0.00001455,-0.00008239,0.00000291,-0.000005
 52,-0.00000009,0.00001674,-0.00004121,-0.00000688,-0.00000584,0.000005
 05,0.00000593,0.00076653,-0.00079154,-0.00011418,0.00526977,0.00327239
 ,0.00331288,0.00986725,0.01726730,0.00012946,-0.00652353,0.00005864,-0
 .00417608,-0.10336402,-0.09351181,-0.01851269,0.00292143,0.00079504,0.
 00187493,-0.01413433,-0.05299506,-0.00540083,-0.00279723,0.00783188,-0
 .00297773,0.00126067,0.00072719,0.00023587,0.10864539,-0.00053554,0.00
 021015,-0.00000200,-0.00057267,0.00082974,-0.00215306,-0.00231358,-0.0
 0117811,0.00486024,0.00047049,-0.00013546,-0.00017950,0.00000348,-0.00
 001425,-0.00010456,-0.00000956,-0.00011138,0.00026206,0.00002683,0.000
 00171,-0.00004613,-0.00001020,0.00003228,0.00000778,0.00005670,-0.0000
 4546,-0.00009366,0.00013371,-0.00146125,-0.00064035,0.00404880,0.00723
 389,-0.00086533,-0.02330204,-0.05650164,-0.00581041,0.00293899,0.00520
 418,0.00082775,-0.09109249,-0.32677359,-0.01827484,0.00131031,0.005136
 83,0.00009899,-0.01049041,-0.03571084,-0.00149390,0.00461322,0.0021286
 4,0.00164104,0.00171560,-0.00575955,0.00082366,0.12217363,0.40510053,0
 .00003565,-0.00000375,-0.00000704,-0.00017668,-0.00080382,-0.00021409,
 0.00024735,0.00000607,0.00073820,0.00026569,-0.00016793,0.00005110,0.0
 0000664,-0.00006047,-0.00002149,-0.00001290,-0.00003458,0.00006686,0.0
 0000326,0.00000222,-0.00000280,-0.00000869,0.00002274,0.00000192,0.000
 01205,-0.00000357,-0.00002203,0.00014704,-0.00030474,-0.00021521,0.004
 62128,0.00064294,-0.00410319,0.00103334,0.00948780,0.00743588,-0.00432
 158,-0.00003353,0.00354654,-0.01860058,-0.01842436,-0.04299036,0.00202
 955,-0.00010354,-0.00212815,-0.00740624,-0.01640509,0.00679328,-0.0027
 9978,0.00296296,0.00345241,0.00023334,0.00058997,0.00055552,0.02293101
 ,0.02452745,0.03018284,0.00019527,-0.00014364,0.00000727,-0.00049870,-
 0.00007137,0.00086674,0.00213245,-0.00028823,-0.00237845,-0.00031919,0
 .00032753,0.00010801,0.00000447,0.00000853,0.00005301,0.00000856,0.000
 09296,-0.00017166,-0.00001137,-0.00000349,0.00002515,0.00000458,-0.000
 02962,-0.00000869,-0.00004369,0.00003351,0.00006239,0.00026264,0.00049
 432,0.00030500,-0.00374369,-0.00294680,0.00026892,-0.00278765,0.007194
 10,-0.00264462,-0.01261648,-0.05186981,-0.00435976,0.00279292,0.001201
 52,0.00176941,-0.10386377,-0.09428846,-0.01867500,-0.00695868,-0.00002
 904,-0.00389382,0.00874442,0.01655133,-0.00071122,0.00362859,0.0004168
 3,0.00297772,-0.00099392,-0.00341261,-0.00050410,0.10627488,0.00042901
 ,-0.00021605,0.00001167,-0.00115560,-0.00007276,0.00118897,0.00360369,
 -0.00022415,-0.00313510,-0.00065093,0.00056602,0.00019560,0.00000025,0
 .00002749,0.00009937,0.00001360,0.00016185,-0.00032720,-0.00002249,-0.
 00000510,0.00004904,0.00001188,-0.00005923,-0.00001701,-0.00008125,0.0
 0006042,0.00011527,0.00056804,0.00077463,0.00043149,-0.00554153,-0.001
 98534,0.00047740,0.00454780,0.00104887,0.00172985,-0.00864026,-0.03267
 275,-0.00077913,0.00124755,0.00564230,-0.00028727,-0.09414734,-0.32845
 672,-0.01685279,0.00227941,0.00507373,0.00060440,-0.02762885,-0.055637
 96,-0.00613405,-0.00221919,0.01049458,-0.00154765,-0.00324474,-0.00911
 200,-0.00063677,0.12521809,0.40383605,0.00003695,-0.00005279,0.0000029
 6,0.00007474,-0.00009250,0.00022955,0.00035820,-0.00001734,-0.00076237
 ,-0.00006105,0.00008363,0.00003403,0.00000140,0.00000060,0.00001257,-0
 .00000104,0.00002611,-0.00003997,-0.00000329,-0.00000128,0.00000580,-0
 .00000033,-0.00000609,-0.00000140,-0.00001195,0.00000610,0.00001654,0.
 00004301,0.00012557,0.00010371,-0.00103353,-0.00094928,0.00062204,-0.0
 0271205,0.00283125,0.00355090,-0.00660914,-0.01570922,0.00656027,0.001
 77604,-0.00012710,-0.00215684,-0.01852911,-0.01702284,-0.04039053,-0.0
 0399501,-0.00012148,0.00300800,0.00162678,0.00910584,0.00818639,0.0031
 3731,-0.00050930,-0.00438044,-0.00045327,-0.00065791,0.00079992,0.0224
 3528,0.02286911,0.02806303,0.00038375,-0.00019630,-0.00000440,-0.00084
 818,-0.00014374,0.00110638,0.00320017,0.00025745,-0.00295386,-0.000615
 34,0.00041331,0.00027355,0.00000164,0.00001984,0.00008208,-0.00000634,
 0.00015641,-0.00028639,-0.00002396,-0.00000342,0.00004312,0.00001133,-
 0.00004152,-0.00001301,-0.00006821,0.00004903,0.00010503,0.00046340,0.
 00061954,0.00028169,-0.00588413,0.00116979,-0.00010995,0.00101922,-0.0
 0824447,-0.00107351,0.00338313,-0.00099229,0.00217744,-0.03021061,0.05
 070457,-0.01585915,-0.00520675,-0.00359993,-0.00301221,-0.17029043,0.1
 3100849,-0.05278951,0.00052122,-0.00042138,-0.00247221,-0.00352390,0.0
 0475508,-0.00169092,0.00364307,-0.00193167,0.00326323,0.00136671,0.001
 61852,0.00013953,0.19494523,-0.00049314,0.00015150,0.00000262,0.000858
 89,0.00012368,-0.00091034,-0.00269862,-0.00010232,0.00227028,0.0004946
 2,-0.00036458,-0.00016569,0.00000826,-0.00001235,-0.00008601,-0.000006
 36,-0.00010636,0.00026529,0.00002427,0.00000207,-0.00004457,-0.0000120
 2,0.00003786,0.00001311,0.00005758,-0.00004593,-0.00008793,-0.00041700
 ,-0.00058835,-0.00027715,0.00404596,0.00093715,-0.00024073,-0.00512763
 ,-0.00234979,-0.00129974,-0.00125828,0.00412455,-0.00084683,0.00697921
 ,-0.01210076,0.00362026,-0.00597599,0.00288761,-0.00198639,0.13109140,
 -0.24564718,0.05555053,0.04366407,-0.04610912,0.01752483,0.00485597,-0
 .00609482,0.00192364,0.00048324,0.01080730,-0.00061040,0.00051557,-0.0
 0573742,0.00052438,-0.17443893,0.29432421,0.00014903,-0.00006662,-0.00
 000446,-0.00045821,0.00005016,0.00038230,0.00116125,-0.00010629,-0.001
 05216,-0.00024237,0.00021668,0.00008598,0.,0.00000885,0.00003117,-0.00
 000126,0.00005354,-0.00011334,-0.00000948,-0.00000076,0.00001756,0.000
 00432,-0.00001860,-0.00000511,-0.00002671,0.00001919,0.00004062,0.0001
 9071,0.00024181,0.00013092,-0.00221567,0.00043381,0.00037090,-0.001079
 66,-0.00257827,0.00449110,0.00219648,-0.00067889,-0.00201663,-0.013437
 92,0.01836263,0.00255432,-0.00285459,-0.00121775,0.00342558,-0.0527474
 7,0.05534954,-0.05622244,-0.00483673,0.00274479,0.00623252,-0.00176218
 ,0.00198715,0.00027583,0.00312563,-0.00136400,-0.00432983,0.00019267,0
 .00091663,0.00071890,0.06802929,-0.07347938,0.04877362,0.00048984,-0.0
 0030615,-0.00000212,-0.00122356,-0.00032976,0.00178999,0.00489259,0.00
 052388,-0.00426031,-0.00090852,0.00063806,0.00029410,0.00000611,0.0000
 5231,0.00013710,0.00001274,0.00023775,-0.00042989,-0.00003105,-0.00000
 936,0.00006219,0.00001191,-0.00007333,-0.00001956,-0.00010732,0.000078
 08,0.00015850,0.00074008,0.00109505,0.00054184,-0.00971180,-0.00258709
 ,-0.00108799,0.00333643,0.00065009,0.00209511,0.00502561,0.00012719,0.
 00049333,0.00410072,0.00305919,-0.00062849,-0.04912486,-0.01461846,-0.
 01863955,-0.04004633,-0.00287798,-0.01621371,-0.32645975,-0.04545749,-
 0.09627361,-0.00443050,0.00286621,-0.00177900,-0.00251569,-0.00388456,
 -0.00088405,0.00694548,0.00470988,0.00392379,0.00839119,-0.00328452,0.
 00489543,0.40176475,-0.00000793,-0.00007338,0.00001702,-0.00020539,-0.
 00000899,0.00031853,0.00092872,0.00000357,-0.00079081,-0.00015807,0.00
 013951,0.00004930,0.00000438,0.00001642,0.00001881,0.00000364,0.000052
 55,-0.00006670,-0.00000343,-0.00000286,0.00000604,0.00000182,-0.000015
 11,-0.00000438,-0.00002028,0.00001199,0.00002830,0.00014221,0.00016702
 ,0.00009145,-0.00183482,-0.00025096,-0.00010783,0.00029982,0.00295946,
 -0.00014655,-0.00266420,-0.00800838,-0.00025218,0.00610117,-0.00602402
 ,0.00259956,0.02909401,0.00871674,0.00985912,-0.04651235,-0.00275859,-
 0.01514317,-0.04540445,-0.08197247,-0.01290830,0.00190989,0.00056896,0
 .00063010,-0.00298560,-0.00152422,-0.00095797,0.00142007,0.00713464,-0
 .00021006,-0.00021504,0.00534215,-0.00063891,0.06032947,0.07567010,0.0
 0015749,-0.00009779,-0.00000444,-0.00019245,-0.00010211,0.00071165,0.0
 0149815,0.00018605,-0.00182932,-0.00031034,0.00021726,0.00010181,-0.00
 000327,0.00002082,0.00004558,-0.00000339,0.00008038,-0.00014298,-0.000
 01086,-0.00000244,0.00002027,0.00000524,-0.00002343,-0.00000559,-0.000
 03585,0.00002309,0.00005349,0.00021700,0.00037027,0.00022498,-0.003794
 17,-0.00082039,0.00082051,0.00233329,-0.00011702,-0.00199441,0.0006809
 1,0.00077277,0.00469093,-0.00048571,0.00155522,0.00408992,-0.02135751,
 -0.00505943,0.00152871,-0.01403790,-0.00043443,0.00367809,-0.09623479,
 -0.01290616,-0.06787904,-0.00189115,0.00097542,-0.00008390,-0.00085725
 ,-0.00127502,0.00026588,0.00424144,0.00099433,-0.00419640,0.00470799,-
 0.00163199,-0.00379596,0.12576430,0.01759928,0.06369035,0.00039836,-0.
 00023255,-0.00006759,0.00144671,-0.00103708,0.00156950,0.00670649,-0.0
 1220184,0.00170331,-0.00059614,-0.00260279,-0.00114344,-0.00009524,-0.
 00052034,-0.00006649,-0.00006888,-0.00071810,0.00030719,0.00016701,-0.
 00010413,-0.00027501,0.00009546,0.00005431,0.00004711,0.00026006,0.000
 01275,-0.00024359,-0.07483439,0.04851517,-0.01171859,0.00151653,-0.000
 77089,-0.00106979,0.00050698,0.00057584,-0.00000924,-0.00000409,0.0001
 0854,0.00002658,0.00026203,0.00071620,0.00007316,0.00003990,0.00012091
 ,0.00002925,0.00005905,-0.00019068,0.00000279,0.00012284,0.00004179,0.
 00002758,0.00002670,-0.00011474,0.00000548,-0.00090640,-0.00050269,-0.
 00019165,-0.00006834,-0.00016073,-0.00001527,-0.00010334,0.00010573,-0
 .00004159,-0.00015742,-0.00004333,-0.00004425,0.10054428,0.00175891,-0
 .00120166,-0.00074749,-0.00427534,0.00389680,-0.00229550,0.02051464,-0
 .04006888,0.00279470,-0.00402956,-0.00585364,-0.00314431,-0.00077703,0
 .00207342,-0.00029702,-0.00023982,-0.00205611,0.00171575,-0.00009266,0
 .00027581,0.00001943,0.00014199,0.00005012,-0.00017460,0.00051845,-0.0
 0027131,-0.00101164,0.03545004,-0.25900716,0.02192443,-0.00493288,-0.0
 0040053,-0.00110682,0.00108259,0.00045033,0.00124963,-0.00022794,0.000
 33256,-0.00018424,-0.00053103,-0.00136381,-0.00024904,0.00020396,0.000
 34130,-0.00000155,0.00028401,-0.00014517,0.00008615,0.00037130,0.00004
 834,0.00014238,-0.00009047,-0.00022148,0.00010275,0.00040226,0.0011834
 7,0.00020586,-0.00020729,-0.00034634,-0.00004345,-0.00031426,0.0003004
 3,-0.00014152,-0.00052587,-0.00007710,-0.00017998,-0.09836433,0.345773
 82,0.00045431,-0.00030959,-0.00002133,0.00152911,-0.00075244,0.0035963
 4,0.00259121,-0.01843887,0.00215560,-0.00085784,-0.00211389,-0.0004319
 1,0.00019285,-0.00054764,-0.00029343,0.00020234,-0.00045391,0.00015283
 ,-0.00006853,0.00005177,0.00000441,0.00008774,0.00004285,0.00005635,0.
 00011935,-0.00008169,-0.00016623,-0.00720530,0.01426110,-0.07690890,-0
 .00118247,0.00046310,0.00015155,-0.00023329,-0.00000861,0.00025377,-0.
 00001046,0.00010396,-0.00001826,0.00008643,0.00005487,0.00000936,0.000
 04610,0.00007987,-0.00002134,0.00003918,-0.00009542,0.00000012,0.00006
 724,0.00002710,0.00003340,0.00000188,-0.00006480,0.00003052,-0.0002472
 2,-0.00002305,0.00009203,-0.00003971,-0.00008073,-0.00000568,-0.000049
 71,0.00005744,-0.00002675,-0.00009755,-0.00002107,-0.00003631,-0.00507
 143,0.00172951,0.05874262,0.00012079,-0.00003158,0.00002456,-0.0046094
 4,-0.00293361,-0.00419544,0.00350488,0.00916952,-0.01736208,0.00067827
 ,-0.00089952,0.00098465,0.00036681,-0.00039278,-0.00012663,-0.00007180
 ,0.00009839,0.00007157,0.00004154,-0.00008426,-0.00006411,-0.00003323,
 0.00009710,0.00002294,0.00004882,0.00000038,-0.00000935,-0.06240918,0.
 00823418,-0.05856351,-0.00087343,-0.00048702,0.00021150,0.00055919,0.0
 0018736,0.00043147,0.00009401,-0.00000128,-0.00001789,0.00013722,0.000
 08372,-0.00005982,0.00001046,0.00005366,-0.00001937,0.00002986,-0.0000
 4626,0.00001489,0.00001840,0.00000391,0.00001031,-0.00000657,-0.000010
 97,0.00001831,-0.00006697,-0.00002976,0.00003229,-0.00000277,-0.000023
 69,0.00000229,-0.00001083,0.00001930,-0.00000838,-0.00003254,-0.000007
 14,-0.00001346,0.00133580,0.01234840,-0.00928347,0.07067721,0.00005750
 ,-0.00000134,0.00002137,-0.00404874,-0.00253276,-0.00378267,-0.0016023
 2,0.01070006,-0.01476005,0.00043492,0.00003127,0.00027368,0.00019122,-
 0.00164457,-0.00032694,-0.00000269,0.00009920,0.00012750,-0.00000539,0
 .00001718,-0.00003248,-0.00009573,0.00011314,0.00005007,0.00000095,0.0
 0002487,0.00005781,0.00553795,-0.06914712,0.05907184,-0.00071602,-0.00
 070607,0.00056026,0.00052026,0.00009271,0.00031334,0.00001716,0.000018
 37,-0.00005087,0.00003652,-0.00004167,-0.00005575,0.00001489,0.0000417
 2,-0.00001320,0.00002846,-0.00003341,0.00001638,0.00002128,0.00000341,
 0.00001434,0.00002641,-0.00001756,0.00001457,0.00003019,0.00005909,0.0
 0003210,-0.00000813,-0.00002138,0.00000149,-0.00001103,0.00001839,-0.0
 0000649,-0.00004017,-0.00000711,-0.00001613,0.01754793,-0.03162883,0.0
 3277618,-0.01728313,0.08786676,0.00008151,-0.00007342,0.00007680,-0.00
 227596,-0.00215801,-0.00114611,-0.00017681,0.00846558,-0.01064433,0.00
 028010,-0.00041368,0.00091813,0.00007395,-0.00102989,-0.00018183,0.000
 28546,0.00003499,-0.00007690,-0.00006386,0.00003579,0.00005159,-0.0000
 4891,0.00008191,0.00011890,-0.00002625,0.00000250,0.00003938,-0.053067
 94,0.06731057,-0.29152868,0.00017597,-0.00021981,0.00156644,-0.0004788
 3,-0.00013880,0.00029559,0.00005222,0.00008050,-0.00001237,0.00012803,
 0.00003467,0.00001601,-0.00000774,0.00000737,-0.00003265,0.00000885,-0
 .00001514,-0.00000296,-0.00000525,-0.00001123,0.00000708,0.00001314,-0
 .00000208,0.00001640,-0.00004265,-0.00003654,0.00002052,0.00000254,0.0
 0000029,0.00000319,0.00001371,-0.00000513,-0.00000075,0.00001667,0.000
 00208,0.00000066,-0.00119501,0.00107501,0.00837559,0.04462098,-0.07601
 180,0.30976483,0.00018979,0.00050942,-0.00001521,0.00267728,-0.0015339
 7,-0.00246187,-0.03536347,0.00453323,0.03035278,0.00105057,-0.00138401
 ,-0.00089598,-0.00069242,-0.00088061,0.00030574,-0.00033487,-0.0011155
 4,0.00071343,0.00036600,-0.00042190,-0.00063590,0.00010517,0.00023303,
 0.00005639,0.00043023,0.00004003,-0.00041084,-0.20638147,-0.03235721,0
 .08745700,-0.01385319,-0.00519922,-0.00410771,0.00244532,-0.00167844,0
 .00299996,-0.00156865,0.00117301,-0.00055727,-0.00026624,-0.00088748,-
 0.00022878,0.00039690,0.00043915,0.00000405,0.00050879,-0.00047700,0.0
 0017835,0.00068078,0.00009670,0.00025779,0.00041636,-0.00060141,0.0002
 3357,-0.00015060,0.00059600,0.00004453,-0.00045274,-0.00073113,-0.0001
 3027,-0.00053804,0.00050841,-0.00022259,-0.00096810,-0.00017318,-0.000
 33347,-0.03665395,0.04153192,0.01892926,-0.00950651,-0.00065230,0.0116
 3610,0.29746306,0.00008141,-0.00012479,-0.00056661,0.00031369,0.000049
 04,-0.00109937,-0.01242370,0.00288262,0.01333952,-0.00279496,-0.000473
 66,0.00022982,-0.00024581,0.00078588,-0.00066578,0.00031522,-0.0003945
 6,0.00020858,-0.00065049,-0.00065214,0.00016266,-0.00007555,-0.0000528
 2,0.00000310,-0.00023455,-0.00021408,-0.00000651,-0.01695785,-0.067427
 71,0.01018668,-0.00735444,-0.00178085,-0.00149814,0.00066631,-0.000734
 49,0.00119090,-0.00057783,0.00039939,-0.00021047,-0.00025212,-0.000613
 60,-0.00012791,0.00014662,0.00015978,-0.00000713,0.00021686,-0.0001308
 7,0.00005964,0.00026605,0.00001706,0.00010508,0.00006355,-0.00019150,0
 .00010212,0.00013129,0.00039992,0.00007041,-0.00017587,-0.00027336,-0.
 00005343,-0.00021806,0.00020208,-0.00008733,-0.00037239,-0.00005995,-0
 .00012857,0.04976505,-0.01208438,-0.02665603,-0.00806490,0.00669566,0.
 00298428,-0.00156753,0.07361731,-0.00009411,-0.00012451,0.00007363,0.0
 0022789,0.00034927,0.00566976,-0.00380774,-0.00431680,0.00238548,-0.00
 029298,0.00130915,-0.00022930,0.00039678,0.00011493,-0.00034979,0.0007
 8797,-0.00002403,-0.00060130,-0.00081383,-0.00019974,0.00045925,-0.000
 08479,-0.00006937,0.00004433,-0.00043427,-0.00023092,0.00021780,0.0870
 0680,0.02041967,-0.13814313,0.00027401,0.00012243,0.00107392,-0.001012
 17,-0.00008857,0.00006562,0.00023737,-0.00012078,0.00010917,0.00004816
 ,0.00003461,0.00007132,-0.00007786,-0.00005887,-0.00005599,-0.00005773
 ,0.00007494,-0.00005022,-0.00010012,-0.00003904,-0.00002563,-0.0000707
 3,0.00009225,-0.00000509,0.00009091,-0.00002870,0.00003126,0.00007147,
 0.00011429,0.00001585,0.00009179,-0.00008010,0.00003611,0.00014349,0.0
 0002835,0.00004552,0.01736099,-0.02146843,0.00427563,0.04327775,0.0017
 2548,-0.01764454,-0.14316906,0.00246450,0.14253034\\-0.00000043,-0.000
 00268,0.00000183,0.00000345,0.00000140,0.00000197,0.00000568,-0.000002
 12,-0.00000067,-0.00000207,0.00000120,0.00000708,-0.00000043,-0.000001
 22,0.00000050,-0.00000190,0.00000489,0.00000220,0.00000297,0.00000728,
 0.00000413,0.00000349,0.00000134,0.00000098,0.00000145,0.00000100,0.00
 000097,-0.00000221,-0.00000323,0.00000223,-0.00000833,0.00000173,0.000
 00217,-0.00000029,-0.00000216,-0.00000263,-0.00000055,0.00000094,-0.00
 000415,-0.00000120,-0.00000018,0.00000067,0.00000007,-0.00000071,-0.00
 000462,-0.00000022,0.00000046,-0.00000260,0.00000010,0.00000023,-0.000
 00423,0.00000052,-0.00000123,-0.00000131,-0.00000046,0.00000028,0.0000
 0023,0.00000026,0.00000033,-0.00000626,0.00000067,0.00000024,-0.000002
 38,0.00000115,0.00000061,-0.00000589,-0.00000175,-0.00000016,0.0000058
 3,-0.00000124,-0.00000134,0.00000290,0.00000129,-0.00000689,0.00000106
 \\\@


 EDUCATION WITHOUT COMMON SENSE IS A LOAD OF BOOKS ON THE BACK OF AN ASS.
 Job cpu time:       0 days  6 hours 14 minutes 28.4 seconds.
 Elapsed time:       0 days  0 hours 23 minutes 27.1 seconds.
 File lengths (MBytes):  RWF=   1035 Int=      0 D2E=      0 Chk=     43 Scr=      1
 Normal termination of Gaussian 16 at Fri Feb 14 13:31:18 2025.
