 Entering Gaussian System, Link 0=g16
 Input=input.com
 Output=input.log
 Initial command:
 /opt/apps/g16_avx2/tar//g16/l1.exe "/scratch/Gau-51730.inp" -scrdir="/scratch/"
 Entering Link 1 = /opt/apps/g16_avx2/tar//g16/l1.exe PID=     51731.
  
 Copyright (c) 1988-2017, Gaussian, Inc.  All Rights Reserved.
  
 This is part of the Gaussian(R) 16 program.  It is based on
 the Gaussian(R) 09 system (copyright 2009, Gaussian, Inc.),
 the Gaussian(R) 03 system (copyright 2003, Gaussian, Inc.),
 the Gaussian(R) 98 system (copyright 1998, Gaussian, Inc.),
 the Gaussian(R) 94 system (copyright 1995, Gaussian, Inc.),
 the Gaussian 92(TM) system (copyright 1992, Gaussian, Inc.),
 the Gaussian 90(TM) system (copyright 1990, Gaussian, Inc.),
 the Gaussian 88(TM) system (copyright 1988, Gaussian, Inc.),
 the Gaussian 86(TM) system (copyright 1986, Carnegie Mellon
 University), and the Gaussian 82(TM) system (copyright 1983,
 Carnegie Mellon University). Gaussian is a federally registered
 trademark of Gaussian, Inc.
  
 This software contains proprietary and confidential information,
 including trade secrets, belonging to Gaussian, Inc.
  
 This software is provided under written license and may be
 used, copied, transmitted, or stored only in accord with that
 written license.
  
 The following legend is applicable only to US Government
 contracts under FAR:
  
                    RESTRICTED RIGHTS LEGEND
  
 Use, reproduction and disclosure by the US Government is
 subject to restrictions as set forth in subparagraphs (a)
 and (c) of the Commercial Computer Software - Restricted
 Rights clause in FAR 52.227-19.
  
 Gaussian, Inc.
 340 Quinnipiac St., Bldg. 40, Wallingford CT 06492
  
  
 ---------------------------------------------------------------
 Warning -- This program may not be used in any manner that
 competes with the business of Gaussian, Inc. or will provide
 assistance to any competitor of Gaussian, Inc.  The licensee
 of this program is prohibited from giving any competitor of
 Gaussian, Inc. access to this program.  By using this program,
 the user acknowledges that Gaussian, Inc. is engaged in the
 business of creating and licensing software in the field of
 computational chemistry and represents and warrants to the
 licensee that it is not a competitor of Gaussian, Inc. and that
 it will not use this program in any manner prohibited above.
 ---------------------------------------------------------------
  

 Cite this work as:
 Gaussian 16, Revision B.01,
 M. J. Frisch, G. W. Trucks, H. B. Schlegel, G. E. Scuseria, 
 M. A. Robb, J. R. Cheeseman, G. Scalmani, V. Barone, 
 G. A. Petersson, H. Nakatsuji, X. Li, M. Caricato, A. V. Marenich, 
 J. Bloino, B. G. Janesko, R. Gomperts, B. Mennucci, H. P. Hratchian, 
 J. V. Ortiz, A. F. Izmaylov, J. L. Sonnenberg, D. Williams-Young, 
 F. Ding, F. Lipparini, F. Egidi, J. Goings, B. Peng, A. Petrone, 
 T. Henderson, D. Ranasinghe, V. G. Zakrzewski, J. Gao, N. Rega, 
 G. Zheng, W. Liang, M. Hada, M. Ehara, K. Toyota, R. Fukuda, 
 J. Hasegawa, M. Ishida, T. Nakajima, Y. Honda, O. Kitao, H. Nakai, 
 T. Vreven, K. Throssell, J. A. Montgomery, Jr., J. E. Peralta, 
 F. Ogliaro, M. J. Bearpark, J. J. Heyd, E. N. Brothers, K. N. Kudin, 
 V. N. Staroverov, T. A. Keith, R. Kobayashi, J. Normand, 
 K. Raghavachari, A. P. Rendell, J. C. Burant, S. S. Iyengar, 
 J. Tomasi, M. Cossi, J. M. Millam, M. Klene, C. Adamo, R. Cammi, 
 J. W. Ochterski, R. L. Martin, K. Morokuma, O. Farkas, 
 J. B. Foresman, and D. J. Fox, Gaussian, Inc., Wallingford CT, 2016.
 
 ******************************************
 Gaussian 16:  ES64L-G16RevB.01 20-Dec-2017
                14-Feb-2025 
 ******************************************
 %nprocshared=16
 Will use up to   16 processors via shared memory.
 %mem=60GB
 ----------------------------------------------------------------------
 #P PBE1PBE/def2TZVP opt freq EmpiricalDispersion=GD3 Int=(grid=99590) 
 scrf=(iefpcm, solvent=water)
 ----------------------------------------------------------------------
 1/18=20,19=15,26=6,38=1/1,3;
 2/9=110,12=2,17=6,18=5,40=1/2;
 3/5=44,7=101,11=2,25=1,30=1,70=2201,71=1,72=1,74=-13,75=99590,124=31/1,2,3;
 4//1;
 5/5=2,38=5,53=1/2;
 6/7=2,8=2,9=2,10=2,28=1/1;
 7//1,2,3,16;
 1/18=20,19=15,26=6/3(2);
 2/9=110/2;
 99//99;
 2/9=110/2;
 3/5=44,7=101,11=2,25=1,30=1,70=2205,71=1,72=1,74=-13,75=99590,124=31/1,2,3;
 4/5=5,16=3,69=1/1;
 5/5=2,38=5,53=1/2;
 7//1,2,3,16;
 1/18=20,19=15,26=6/3(-5);
 2/9=110/2;
 6/7=2,8=2,9=2,10=2,19=2,28=1/1;
 99/9=1/99;
 Leave Link    1 at Fri Feb 14 12:13:41 2025, MaxMem=  8053063680 cpu:               0.3 elap:               0.1
 (Enter /opt/apps/g16_avx2/tar//g16/l101.exe)
 ------------------------------
 x=chf2 methylacetamide product
 ------------------------------
 Symbolic Z-matrix:
 Charge =  0 Multiplicity = 1
 C                     0.64172   0.80342   0.17601 
 O                     0.03378  -0.29782   0.14071 
 N                     2.07657   0.84102   0.49332 
 H                     2.49971   1.62069   0.03173 
 C                    -0.11747   2.11169  -0.11322 
 C                     2.71227  -0.40309   0.0362 
 H                     2.58335  -0.5018   -1.02141 
 H                     3.75669  -0.37571   0.26717 
 H                     2.25951  -1.23734   0.5301 
 F                    -0.06274   2.38095  -1.43496 
 H                    -1.13893   2.00517   0.18708 
 F                     0.45103   3.12369   0.57611 
 
 ITRead=  0  0  0  0  0  0  0  0  0  0  0  0
 MicOpt= -1 -1 -1 -1 -1 -1 -1 -1 -1 -1 -1 -1
 NAtoms=     12 NQM=       12 NQMF=       0 NMMI=      0 NMMIF=      0
                NMic=       0 NMicF=      0.
                    Isotopes and Nuclear Properties:
 (Nuclear quadrupole moments (NQMom) in fm**2, nuclear magnetic moments (NMagM)
  in nuclear magnetons)

  Atom         1           2           3           4           5           6           7           8           9          10
 IAtWgt=          12          16          14           1          12          12           1           1           1          19
 AtmWgt=  12.0000000  15.9949146  14.0030740   1.0078250  12.0000000  12.0000000   1.0078250   1.0078250   1.0078250  18.9984032
 NucSpn=           0           0           2           1           0           0           1           1           1           1
 AtZEff=  -0.0000000  -0.0000000  -0.0000000  -0.0000000  -0.0000000  -0.0000000  -0.0000000  -0.0000000  -0.0000000  -0.0000000
 NQMom=    0.0000000   0.0000000   2.0440000   0.0000000   0.0000000   0.0000000   0.0000000   0.0000000   0.0000000   0.0000000
 NMagM=    0.0000000   0.0000000   0.4037610   2.7928460   0.0000000   0.0000000   2.7928460   2.7928460   2.7928460   2.6288670
 AtZNuc=   6.0000000   8.0000000   7.0000000   1.0000000   6.0000000   6.0000000   1.0000000   1.0000000   1.0000000   9.0000000

  Atom        11          12
 IAtWgt=           1          19
 AtmWgt=   1.0078250  18.9984032
 NucSpn=           1           1
 AtZEff=  -0.0000000  -0.0000000
 NQMom=    0.0000000   0.0000000
 NMagM=    2.7928460   2.6288670
 AtZNuc=   1.0000000   9.0000000
 Leave Link  101 at Fri Feb 14 12:13:41 2025, MaxMem=  8053063680 cpu:               1.8 elap:               0.2
 (Enter /opt/apps/g16_avx2/tar//g16/l103.exe)

 GradGradGradGradGradGradGradGradGradGradGradGradGradGradGradGradGradGrad
 Berny optimization.
 Initialization pass.
                           ----------------------------
                           !    Initial Parameters    !
                           ! (Angstroms and Degrees)  !
 --------------------------                            --------------------------
 ! Name  Definition              Value          Derivative Info.                !
 --------------------------------------------------------------------------------
 ! R1    R(1,2)                  1.2584         estimate D2E/DX2                !
 ! R2    R(1,3)                  1.47           estimate D2E/DX2                !
 ! R3    R(1,5)                  1.54           estimate D2E/DX2                !
 ! R4    R(3,4)                  1.0            estimate D2E/DX2                !
 ! R5    R(3,6)                  1.47           estimate D2E/DX2                !
 ! R6    R(5,10)                 1.35           estimate D2E/DX2                !
 ! R7    R(5,11)                 1.07           estimate D2E/DX2                !
 ! R8    R(5,12)                 1.35           estimate D2E/DX2                !
 ! R9    R(6,7)                  1.07           estimate D2E/DX2                !
 ! R10   R(6,8)                  1.07           estimate D2E/DX2                !
 ! R11   R(6,9)                  1.07           estimate D2E/DX2                !
 ! A1    A(2,1,3)              120.0            estimate D2E/DX2                !
 ! A2    A(2,1,5)              120.0            estimate D2E/DX2                !
 ! A3    A(3,1,5)              120.0            estimate D2E/DX2                !
 ! A4    A(1,3,4)              109.4712         estimate D2E/DX2                !
 ! A5    A(1,3,6)              109.4712         estimate D2E/DX2                !
 ! A6    A(4,3,6)              109.4712         estimate D2E/DX2                !
 ! A7    A(1,5,10)             109.4712         estimate D2E/DX2                !
 ! A8    A(1,5,11)             109.4712         estimate D2E/DX2                !
 ! A9    A(1,5,12)             109.4712         estimate D2E/DX2                !
 ! A10   A(10,5,11)            109.4712         estimate D2E/DX2                !
 ! A11   A(10,5,12)            109.4712         estimate D2E/DX2                !
 ! A12   A(11,5,12)            109.4712         estimate D2E/DX2                !
 ! A13   A(3,6,7)              109.4712         estimate D2E/DX2                !
 ! A14   A(3,6,8)              109.4712         estimate D2E/DX2                !
 ! A15   A(3,6,9)              109.4712         estimate D2E/DX2                !
 ! A16   A(7,6,8)              109.4712         estimate D2E/DX2                !
 ! A17   A(7,6,9)              109.4712         estimate D2E/DX2                !
 ! A18   A(8,6,9)              109.4712         estimate D2E/DX2                !
 ! D1    D(2,1,3,4)            150.0            estimate D2E/DX2                !
 ! D2    D(2,1,3,6)             30.0            estimate D2E/DX2                !
 ! D3    D(5,1,3,4)            -30.0            estimate D2E/DX2                !
 ! D4    D(5,1,3,6)           -150.0            estimate D2E/DX2                !
 ! D5    D(2,1,5,10)           -90.0            estimate D2E/DX2                !
 ! D6    D(2,1,5,11)            30.0            estimate D2E/DX2                !
 ! D7    D(2,1,5,12)           150.0            estimate D2E/DX2                !
 ! D8    D(3,1,5,10)            90.0            estimate D2E/DX2                !
 ! D9    D(3,1,5,11)          -150.0            estimate D2E/DX2                !
 ! D10   D(3,1,5,12)           -30.0            estimate D2E/DX2                !
 ! D11   D(1,3,6,7)             60.0            estimate D2E/DX2                !
 ! D12   D(1,3,6,8)            180.0            estimate D2E/DX2                !
 ! D13   D(1,3,6,9)            -60.0            estimate D2E/DX2                !
 ! D14   D(4,3,6,7)            -60.0            estimate D2E/DX2                !
 ! D15   D(4,3,6,8)             60.0            estimate D2E/DX2                !
 ! D16   D(4,3,6,9)            180.0            estimate D2E/DX2                !
 --------------------------------------------------------------------------------
 Trust Radius=3.00D-01 FncErr=5.00D-06 GrdErr=5.00D-06 EigMax=2.50D+02 EigMin=1.00D-04
 Number of steps in this run=     55 maximum allowed number of steps=    100.
 GradGradGradGradGradGradGradGradGradGradGradGradGradGradGradGradGradGrad

 Leave Link  103 at Fri Feb 14 12:13:41 2025, MaxMem=  8053063680 cpu:               0.1 elap:               0.1
 (Enter /opt/apps/g16_avx2/tar//g16/l202.exe)
                          Input orientation:                          
 ---------------------------------------------------------------------
 Center     Atomic      Atomic             Coordinates (Angstroms)
 Number     Number       Type             X           Y           Z
 ---------------------------------------------------------------------
      1          6           0        0.641720    0.803417    0.176008
      2          8           0        0.033777   -0.297823    0.140708
      3          7           0        2.076571    0.841025    0.493323
      4          1           0        2.499714    1.620695    0.031733
      5          6           0       -0.117471    2.111690   -0.113218
      6          6           0        2.712275   -0.403089    0.036199
      7          1           0        2.583346   -0.501795   -1.021409
      8          1           0        3.756690   -0.375714    0.267170
      9          1           0        2.259511   -1.237335    0.530100
     10          9           0       -0.062739    2.380953   -1.434960
     11          1           0       -1.138929    2.005166    0.187076
     12          9           0        0.451028    3.123688    0.576107
 ---------------------------------------------------------------------
                    Distance matrix (angstroms):
                    1          2          3          4          5
     1  C    0.000000
     2  O    1.258400   0.000000
     3  N    1.470000   2.365231   0.000000
     4  H    2.034920   3.126249   1.000000   0.000000
     5  C    1.540000   2.427572   2.606971   2.666785   0.000000
     6  C    2.400500   2.682602   1.470000   2.034920   3.788654
     7  H    2.628174   2.809346   2.086720   2.370879   3.866462
     8  H    3.331921   3.725875   2.086720   2.370879   4.619632
     9  H    2.628174   2.447081   2.086720   2.911082   4.156906
    10  F    2.362224   3.109323   3.265930   3.048827   1.350000
    11  H    2.148263   2.584792   3.433431   3.662195   1.070000
    12  F    2.362224   3.474249   2.803532   2.598547   1.350000
                    6          7          8          9         10
     6  C    0.000000
     7  H    1.070000   0.000000
     8  H    1.070000   1.747303   0.000000
     9  H    1.070000   1.747303   1.747303   0.000000
    10  F    4.197130   3.934848   5.008443   4.727189   0.000000
    11  H    4.544692   4.647647   5.444455   4.709658   1.982524
    12  F    4.224084   4.499218   4.823760   4.721361   2.204541
                   11         12
    11  H    0.000000
    12  F    1.982524   0.000000
 Stoichiometry    C3H5F2NO
 Framework group  C1[X(C3H5F2NO)]
 Deg. of freedom    30
 Full point group                 C1      NOp   1
 Largest Abelian subgroup         C1      NOp   1
 Largest concise Abelian subgroup C1      NOp   1
                         Standard orientation:                         
 ---------------------------------------------------------------------
 Center     Atomic      Atomic             Coordinates (Angstroms)
 Number     Number       Type             X           Y           Z
 ---------------------------------------------------------------------
      1          6           0        0.253068    0.362029   -0.302688
      2          8           0        0.753662    1.494934   -0.525181
      3          7           0        1.125920   -0.812276   -0.161143
      4          1           0        0.698581   -1.472769    0.456215
      5          6           0       -1.273965    0.205832   -0.178691
      6          6           0        2.423316   -0.394914    0.389741
      7          1           0        2.275085    0.056919    1.348268
      8          1           0        3.058658   -1.249680    0.492770
      9          1           0        2.880569    0.311813   -0.270832
     10          9           0       -1.639997    0.370779    1.110228
     11          1           0       -1.758253    0.943243   -0.784159
     12          9           0       -1.635547   -1.026418   -0.595005
 ---------------------------------------------------------------------
 Rotational constants (GHZ):           4.3168313           1.7655337           1.5699214
 Leave Link  202 at Fri Feb 14 12:13:41 2025, MaxMem=  8053063680 cpu:               0.0 elap:               0.1
 (Enter /opt/apps/g16_avx2/tar//g16/l301.exe)
 Standard basis: def2TZVP (5D, 7F)
 Ernie: Thresh=  0.10000D-02 Tol=  0.10000D-05 Strict=F.
 There are   282 symmetry adapted cartesian basis functions of A   symmetry.
 There are   247 symmetry adapted basis functions of A   symmetry.
   247 basis functions,   397 primitive gaussians,   282 cartesian basis functions
    28 alpha electrons       28 beta electrons
       nuclear repulsion energy       319.5082362712 Hartrees.
 IExCor= 1009 DFT=T Ex+Corr=PBE1PBE ExCW=0 ScaHFX=  0.250000
 ScaDFX=  0.750000  0.750000  1.000000  1.000000 ScalE2=  1.000000  1.000000
 IRadAn=  99590 IRanWt=     -1 IRanGd=            0 ICorTp=0 IEmpDi=131
 NAtoms=   12 NActive=   12 NUniq=   12 SFac= 1.00D+00 NAtFMM=   60 NAOKFM=F Big=F
 Integral buffers will be    131072 words long.
 Raffenetti 2 integral format.
 Two-electron integral symmetry is turned on.
 R6Disp:  Grimme-D3 Dispersion energy=       -0.0044276878 Hartrees.
 Nuclear repulsion after empirical dispersion term =      319.5038085835 Hartrees.
 ------------------------------------------------------------------------------
 Polarizable Continuum Model (PCM)
 =================================
 Model                : PCM.
 Atomic radii         : UFF (Universal Force Field).
 Polarization charges : Total charges.
 Charge compensation  : None.
 Solution method      : On-the-fly selection.
 Cavity type          : Scaled VdW (van der Waals Surface) (Alpha=1.100).
 Cavity algorithm     : GePol (No added spheres)
                        Default sphere list used, NSphG=   12.
                        Lebedev-Laikov grids with approx.  5.0 points / Ang**2.
                        Smoothing algorithm: York/Karplus (Gamma=1.0000).
                        Polarization charges: spherical gaussians, with
                                              point-specific exponents (IZeta= 3).
                        Self-potential: point-specific (ISelfS= 7).
                        Self-field    : sphere-specific E.n sum rule (ISelfD= 2).
 1st derivatives      : Analytical E(r).r(x)/FMM algorithm (CHGder, D1EAlg=3).
                        Cavity 1st derivative terms included.
 Solvent              : Water, Eps=  78.355300 Eps(inf)=   1.777849
 ------------------------------------------------------------------------------
 Spheres list:
 ISph  on   Nord     Re0    Alpha      Xe            Ye            Ze
    1   C      1    1.9255  1.100      0.253068      0.362029     -0.302688
    2   O      2    1.7500  1.100      0.753662      1.494934     -0.525181
    3   N      3    1.8300  1.100      1.125920     -0.812276     -0.161143
    4   H      4    1.4430  1.100      0.698581     -1.472769      0.456215
    5   C      5    1.9255  1.100     -1.273965      0.205832     -0.178691
    6   C      6    1.9255  1.100      2.423316     -0.394914      0.389741
    7   H      7    1.4430  1.100      2.275085      0.056919      1.348268
    8   H      8    1.4430  1.100      3.058658     -1.249680      0.492770
    9   H      9    1.4430  1.100      2.880569      0.311813     -0.270832
   10   F     10    1.6820  1.100     -1.639997      0.370779      1.110228
   11   H     11    1.4430  1.100     -1.758253      0.943243     -0.784159
   12   F     12    1.6820  1.100     -1.635547     -1.026418     -0.595005
 ------------------------------------------------------------------------------
 GePol: Number of generator spheres                  =      12
 GePol: Total number of spheres                      =      12
 GePol: Number of exposed spheres                    =      12 (100.00%)
 GePol: Number of points                             =    1183
 GePol: Average weight of points                     =       0.13
 GePol: Minimum weight of points                     =   0.20D-09
 GePol: Maximum weight of points                     =    0.20577
 GePol: Number of points with low weight             =      50
 GePol: Fraction of low-weight points (<1% of avg)   =       4.23%
 GePol: Cavity surface area                          =    153.303 Ang**2
 GePol: Cavity volume                                =    140.238 Ang**3
 Leave Link  301 at Fri Feb 14 12:13:41 2025, MaxMem=  8053063680 cpu:               0.5 elap:               0.1
 (Enter /opt/apps/g16_avx2/tar//g16/l302.exe)
 NPDir=0 NMtPBC=     1 NCelOv=     1 NCel=       1 NClECP=     1 NCelD=      1
         NCelK=      1 NCelE2=     1 NClLst=     1 CellRange=     0.0.
 One-electron integrals computed using PRISM.
 One-electron integral symmetry used in STVInt
   1 Symmetry operations used in ECPInt.
 ECPInt:  NShTT=    4753 NPrTT=   14704 LenC2=    4635 LenP2D=   11458.
 LDataN:  DoStor=T MaxTD1= 6 Len=  172
 NBasis=   247 RedAO= T EigKep=  4.95D-04  NBF=   247
 NBsUse=   247 1.00D-06 EigRej= -1.00D+00 NBFU=   247
 Precomputing XC quadrature grid using
 IXCGrd= 4 IRadAn=       99590 IRanWt=          -1 IRanGd=           0 AccXCQ= 0.00D+00.
 Generated NRdTot=       0 NPtTot=           0 NUsed=           0 NTot=          32
 NSgBfM=   281   281   281   281   281 MxSgAt=    12 MxSgA2=    12.
 Leave Link  302 at Fri Feb 14 12:13:41 2025, MaxMem=  8053063680 cpu:               1.6 elap:               0.1
 (Enter /opt/apps/g16_avx2/tar//g16/l303.exe)
 DipDrv:  MaxL=1.
 Leave Link  303 at Fri Feb 14 12:13:41 2025, MaxMem=  8053063680 cpu:               0.3 elap:               0.1
 (Enter /opt/apps/g16_avx2/tar//g16/l401.exe)
 ExpMin= 9.52D-02 ExpMax= 3.55D+04 ExpMxC= 1.21D+03 IAcc=4 IRadAn=    199590 AccDes= 0.00D+00
 Harris functional with IExCor= 1009 and IRadAn=  199590 diagonalized for initial guess.
 HarFok:  IExCor= 1009 AccDes= 0.00D+00 IRadAn=    199590 IDoV= 1 UseB2=F ITyADJ=14
 ICtDFT=  3500011 ScaDFX=  1.000000  1.000000  1.000000  1.000000
 FoFCou: FMM=F IPFlag=           0 FMFlag=      100000 FMFlg1=           0
         NFxFlg=           0 DoJE=T BraDBF=F KetDBF=T FulRan=T
         wScrn=  0.000000 ICntrl=       500 IOpCl=  0 I1Cent=   200000004 NGrid=           0
         NMat0=    1 NMatS0=      1 NMatT0=    0 NMatD0=    1 NMtDS0=    0 NMtDT0=    0
 Petite list used in FoFCou.
 Harris En= -446.749229425331    
 JPrj=0 DoOrth=F DoCkMO=F.
 Leave Link  401 at Fri Feb 14 12:13:42 2025, MaxMem=  8053063680 cpu:               9.8 elap:               0.7
 (Enter /opt/apps/g16_avx2/tar//g16/l502.exe)
 Keep R1 ints in memory in canonical form, NReq=486867568.
 FoFCou: FMM=F IPFlag=           0 FMFlag=           0 FMFlg1=           0
         NFxFlg=           0 DoJE=F BraDBF=F KetDBF=F FulRan=T
         wScrn=  0.000000 ICntrl=       600 IOpCl=  0 I1Cent=           0 NGrid=           0
         NMat0=    1 NMatS0=  30628 NMatT0=    0 NMatD0=    1 NMtDS0=    0 NMtDT0=    0
 Symmetry not used in FoFCou.
 Two-electron integral symmetry not used.
 Closed shell SCF:
 Using DIIS extrapolation, IDIIS=  1040.
 NGot=  8053063680 LenX=  7583845040 LenY=  7583765075
 Requested convergence on RMS density matrix=1.00D-08 within 128 cycles.
 Requested convergence on MAX density matrix=1.00D-06.
 Requested convergence on             energy=1.00D-06.
 No special actions if energy rises.

 Cycle   1  Pass 1  IDiag  1:
 Inv3:  Mode=1 IEnd=     4198467.
 Iteration    1 A*A^-1 deviation from unit magnitude is 2.66D-15 for      3.
 Iteration    1 A*A^-1 deviation from orthogonality  is 1.78D-15 for   1045     75.
 Iteration    1 A^-1*A deviation from unit magnitude is 3.11D-15 for      3.
 Iteration    1 A^-1*A deviation from orthogonality  is 1.33D-15 for    982     67.
 E= -446.566967830150    
 DIIS: error= 1.93D-02 at cycle   1 NSaved=   1.
 NSaved= 1 IEnMin= 1 EnMin= -446.566967830150     IErMin= 1 ErrMin= 1.93D-02
 ErrMax= 1.93D-02  0.00D+00 EMaxC= 1.00D-01 BMatC= 1.99D-01 BMatP= 1.99D-01
 IDIUse=3 WtCom= 8.07D-01 WtEn= 1.93D-01
 Coeff-Com:  0.100D+01
 Coeff-En:   0.100D+01
 Coeff:      0.100D+01
 Gap=     0.196 Goal=   None    Shift=    0.000
 GapD=    0.196 DampG=1.000 DampE=0.500 DampFc=0.5000 IDamp=-1.
 Damping current iteration by 5.00D-01
 RMSDP=2.73D-03 MaxDP=1.07D-01              OVMax= 1.90D-01

 Cycle   2  Pass 1  IDiag  1:
 E= -446.597145111254     Delta-E=       -0.030177281103 Rises=F Damp=T
 DIIS: error= 6.22D-03 at cycle   2 NSaved=   2.
 NSaved= 2 IEnMin= 2 EnMin= -446.597145111254     IErMin= 2 ErrMin= 6.22D-03
 ErrMax= 6.22D-03  0.00D+00 EMaxC= 1.00D-01 BMatC= 3.49D-02 BMatP= 1.99D-01
 IDIUse=3 WtCom= 9.38D-01 WtEn= 6.22D-02
 Coeff-Com:  0.225D+00 0.775D+00
 Coeff-En:   0.388D+00 0.612D+00
 Coeff:      0.235D+00 0.765D+00
 Gap=     0.259 Goal=   None    Shift=    0.000
 RMSDP=8.12D-04 MaxDP=2.84D-02 DE=-3.02D-02 OVMax= 1.89D-01

 Cycle   3  Pass 1  IDiag  1:
 E= -446.689462856509     Delta-E=       -0.092317745255 Rises=F Damp=F
 DIIS: error= 6.23D-03 at cycle   3 NSaved=   3.
 NSaved= 3 IEnMin= 3 EnMin= -446.689462856509     IErMin= 2 ErrMin= 6.22D-03
 ErrMax= 6.23D-03  0.00D+00 EMaxC= 1.00D-01 BMatC= 2.00D-02 BMatP= 3.49D-02
 IDIUse=3 WtCom= 9.38D-01 WtEn= 6.23D-02
 Coeff-Com:  0.320D-01 0.425D+00 0.543D+00
 Coeff-En:   0.000D+00 0.000D+00 0.100D+01
 Coeff:      0.300D-01 0.398D+00 0.572D+00
 Gap=     0.254 Goal=   None    Shift=    0.000
 RMSDP=4.42D-04 MaxDP=2.11D-02 DE=-9.23D-02 OVMax= 5.34D-02

 Cycle   4  Pass 1  IDiag  1:
 E= -446.702312407340     Delta-E=       -0.012849550832 Rises=F Damp=F
 DIIS: error= 2.50D-03 at cycle   4 NSaved=   4.
 NSaved= 4 IEnMin= 4 EnMin= -446.702312407340     IErMin= 4 ErrMin= 2.50D-03
 ErrMax= 2.50D-03  0.00D+00 EMaxC= 1.00D-01 BMatC= 3.82D-03 BMatP= 2.00D-02
 IDIUse=3 WtCom= 9.75D-01 WtEn= 2.50D-02
 Coeff-Com: -0.143D-01 0.110D+00 0.337D+00 0.567D+00
 Coeff-En:   0.000D+00 0.000D+00 0.172D+00 0.828D+00
 Coeff:     -0.140D-01 0.107D+00 0.333D+00 0.574D+00
 Gap=     0.245 Goal=   None    Shift=    0.000
 RMSDP=1.71D-04 MaxDP=6.37D-03 DE=-1.28D-02 OVMax= 2.28D-02

 Cycle   5  Pass 1  IDiag  1:
 E= -446.705155020427     Delta-E=       -0.002842613087 Rises=F Damp=F
 DIIS: error= 5.40D-04 at cycle   5 NSaved=   5.
 NSaved= 5 IEnMin= 5 EnMin= -446.705155020427     IErMin= 5 ErrMin= 5.40D-04
 ErrMax= 5.40D-04  0.00D+00 EMaxC= 1.00D-01 BMatC= 2.82D-04 BMatP= 3.82D-03
 IDIUse=3 WtCom= 9.95D-01 WtEn= 5.40D-03
 Coeff-Com: -0.874D-02 0.279D-01 0.138D+00 0.315D+00 0.527D+00
 Coeff-En:   0.000D+00 0.000D+00 0.000D+00 0.000D+00 0.100D+01
 Coeff:     -0.869D-02 0.277D-01 0.138D+00 0.314D+00 0.530D+00
 Gap=     0.245 Goal=   None    Shift=    0.000
 RMSDP=4.50D-05 MaxDP=1.67D-03 DE=-2.84D-03 OVMax= 5.34D-03

 Cycle   6  Pass 1  IDiag  1:
 E= -446.705384256573     Delta-E=       -0.000229236145 Rises=F Damp=F
 DIIS: error= 1.42D-04 at cycle   6 NSaved=   6.
 NSaved= 6 IEnMin= 6 EnMin= -446.705384256573     IErMin= 6 ErrMin= 1.42D-04
 ErrMax= 1.42D-04  0.00D+00 EMaxC= 1.00D-01 BMatC= 1.04D-05 BMatP= 2.82D-04
 IDIUse=3 WtCom= 9.99D-01 WtEn= 1.42D-03
 Coeff-Com: -0.263D-02 0.347D-02 0.350D-01 0.922D-01 0.231D+00 0.641D+00
 Coeff-En:   0.000D+00 0.000D+00 0.000D+00 0.000D+00 0.000D+00 0.100D+01
 Coeff:     -0.263D-02 0.347D-02 0.349D-01 0.920D-01 0.231D+00 0.641D+00
 Gap=     0.245 Goal=   None    Shift=    0.000
 RMSDP=7.75D-06 MaxDP=2.84D-04 DE=-2.29D-04 OVMax= 6.10D-04

 Cycle   7  Pass 1  IDiag  1:
 E= -446.705392228897     Delta-E=       -0.000007972324 Rises=F Damp=F
 DIIS: error= 2.55D-05 at cycle   7 NSaved=   7.
 NSaved= 7 IEnMin= 7 EnMin= -446.705392228897     IErMin= 7 ErrMin= 2.55D-05
 ErrMax= 2.55D-05  0.00D+00 EMaxC= 1.00D-01 BMatC= 3.07D-07 BMatP= 1.04D-05
 IDIUse=1 WtCom= 1.00D+00 WtEn= 0.00D+00
 Coeff-Com: -0.542D-03 0.380D-04 0.664D-02 0.180D-01 0.602D-01 0.215D+00
 Coeff-Com:  0.700D+00
 Coeff:     -0.542D-03 0.380D-04 0.664D-02 0.180D-01 0.602D-01 0.215D+00
 Coeff:      0.700D+00
 Gap=     0.245 Goal=   None    Shift=    0.000
 RMSDP=2.22D-06 MaxDP=5.93D-05 DE=-7.97D-06 OVMax= 1.13D-04

 Cycle   8  Pass 1  IDiag  1:
 E= -446.705392443902     Delta-E=       -0.000000215006 Rises=F Damp=F
 DIIS: error= 8.25D-06 at cycle   8 NSaved=   8.
 NSaved= 8 IEnMin= 8 EnMin= -446.705392443902     IErMin= 8 ErrMin= 8.25D-06
 ErrMax= 8.25D-06  0.00D+00 EMaxC= 1.00D-01 BMatC= 4.66D-08 BMatP= 3.07D-07
 IDIUse=1 WtCom= 1.00D+00 WtEn= 0.00D+00
 Coeff-Com:  0.411D-04-0.347D-03-0.383D-03-0.125D-02 0.486D-02 0.296D-01
 Coeff-Com:  0.296D+00 0.672D+00
 Coeff:      0.411D-04-0.347D-03-0.383D-03-0.125D-02 0.486D-02 0.296D-01
 Coeff:      0.296D+00 0.672D+00
 Gap=     0.245 Goal=   None    Shift=    0.000
 RMSDP=6.08D-07 MaxDP=1.90D-05 DE=-2.15D-07 OVMax= 4.30D-05

 Cycle   9  Pass 1  IDiag  1:
 E= -446.705392476425     Delta-E=       -0.000000032523 Rises=F Damp=F
 DIIS: error= 3.39D-06 at cycle   9 NSaved=   9.
 NSaved= 9 IEnMin= 9 EnMin= -446.705392476425     IErMin= 9 ErrMin= 3.39D-06
 ErrMax= 3.39D-06  0.00D+00 EMaxC= 1.00D-01 BMatC= 5.83D-09 BMatP= 4.66D-08
 IDIUse=1 WtCom= 1.00D+00 WtEn= 0.00D+00
 Coeff-Com:  0.526D-04-0.167D-03-0.551D-03-0.173D-02-0.145D-02-0.725D-03
 Coeff-Com:  0.991D-01 0.341D+00 0.564D+00
 Coeff:      0.526D-04-0.167D-03-0.551D-03-0.173D-02-0.145D-02-0.725D-03
 Coeff:      0.991D-01 0.341D+00 0.564D+00
 Gap=     0.245 Goal=   None    Shift=    0.000
 RMSDP=2.04D-07 MaxDP=6.24D-06 DE=-3.25D-08 OVMax= 1.11D-05

 Cycle  10  Pass 1  IDiag  1:
 E= -446.705392479878     Delta-E=       -0.000000003453 Rises=F Damp=F
 DIIS: error= 5.14D-07 at cycle  10 NSaved=  10.
 NSaved=10 IEnMin=10 EnMin= -446.705392479878     IErMin=10 ErrMin= 5.14D-07
 ErrMax= 5.14D-07  0.00D+00 EMaxC= 1.00D-01 BMatC= 1.78D-10 BMatP= 5.83D-09
 IDIUse=1 WtCom= 1.00D+00 WtEn= 0.00D+00
 Coeff-Com:  0.134D-04-0.265D-04-0.139D-03-0.445D-03-0.811D-03-0.296D-02
 Coeff-Com:  0.526D-02 0.504D-01 0.181D+00 0.768D+00
 Coeff:      0.134D-04-0.265D-04-0.139D-03-0.445D-03-0.811D-03-0.296D-02
 Coeff:      0.526D-02 0.504D-01 0.181D+00 0.768D+00
 Gap=     0.245 Goal=   None    Shift=    0.000
 RMSDP=5.64D-08 MaxDP=1.65D-06 DE=-3.45D-09 OVMax= 3.28D-06

 Cycle  11  Pass 1  IDiag  1:
 E= -446.705392480017     Delta-E=       -0.000000000138 Rises=F Damp=F
 DIIS: error= 1.29D-07 at cycle  11 NSaved=  11.
 NSaved=11 IEnMin=11 EnMin= -446.705392480017     IErMin=11 ErrMin= 1.29D-07
 ErrMax= 1.29D-07  0.00D+00 EMaxC= 1.00D-01 BMatC= 8.29D-12 BMatP= 1.78D-10
 IDIUse=1 WtCom= 1.00D+00 WtEn= 0.00D+00
 Coeff-Com:  0.364D-06 0.845D-06 0.238D-05-0.436D-05-0.102D-03-0.645D-03
 Coeff-Com: -0.403D-02-0.732D-02 0.159D-01 0.192D+00 0.804D+00
 Coeff:      0.364D-06 0.845D-06 0.238D-05-0.436D-05-0.102D-03-0.645D-03
 Coeff:     -0.403D-02-0.732D-02 0.159D-01 0.192D+00 0.804D+00
 Gap=     0.245 Goal=   None    Shift=    0.000
 RMSDP=1.26D-08 MaxDP=3.69D-07 DE=-1.38D-10 OVMax= 1.47D-06

 Cycle  12  Pass 1  IDiag  1:
 E= -446.705392480024     Delta-E=       -0.000000000007 Rises=F Damp=F
 DIIS: error= 5.15D-08 at cycle  12 NSaved=  12.
 NSaved=12 IEnMin=12 EnMin= -446.705392480024     IErMin=12 ErrMin= 5.15D-08
 ErrMax= 5.15D-08  0.00D+00 EMaxC= 1.00D-01 BMatC= 2.06D-12 BMatP= 8.29D-12
 IDIUse=1 WtCom= 1.00D+00 WtEn= 0.00D+00
 Coeff-Com: -0.411D-06 0.193D-05 0.100D-04 0.225D-04-0.265D-05-0.132D-03
 Coeff-Com: -0.231D-02-0.715D-02-0.443D-02 0.348D-01 0.383D+00 0.597D+00
 Coeff:     -0.411D-06 0.193D-05 0.100D-04 0.225D-04-0.265D-05-0.132D-03
 Coeff:     -0.231D-02-0.715D-02-0.443D-02 0.348D-01 0.383D+00 0.597D+00
 Gap=     0.245 Goal=   None    Shift=    0.000
 RMSDP=4.45D-09 MaxDP=1.32D-07 DE=-7.22D-12 OVMax= 2.67D-07

 Error on total polarization charges =  0.00741
 SCF Done:  E(RPBE1PBE) =  -446.705392480     A.U. after   12 cycles
            NFock= 12  Conv=0.44D-08     -V/T= 2.0043
 KE= 4.447921648349D+02 PE=-1.693088124163D+03 EE= 4.820867582648D+02
 Leave Link  502 at Fri Feb 14 12:13:52 2025, MaxMem=  8053063680 cpu:             112.8 elap:               9.5
 (Enter /opt/apps/g16_avx2/tar//g16/l601.exe)
 Copying SCF densities to generalized density rwf, IOpCl= 0 IROHF=0.

 **********************************************************************

            Population analysis using the SCF Density.

 **********************************************************************

 Orbital symmetries:
       Occupied  (A) (A) (A) (A) (A) (A) (A) (A) (A) (A) (A) (A)
                 (A) (A) (A) (A) (A) (A) (A) (A) (A) (A) (A) (A)
                 (A) (A) (A) (A)
       Virtual   (A) (A) (A) (A) (A) (A) (A) (A) (A) (A) (A) (A)
                 (A) (A) (A) (A) (A) (A) (A) (A) (A) (A) (A) (A)
                 (A) (A) (A) (A) (A) (A) (A) (A) (A) (A) (A) (A)
                 (A) (A) (A) (A) (A) (A) (A) (A) (A) (A) (A) (A)
                 (A) (A) (A) (A) (A) (A) (A) (A) (A) (A) (A) (A)
                 (A) (A) (A) (A) (A) (A) (A) (A) (A) (A) (A) (A)
                 (A) (A) (A) (A) (A) (A) (A) (A) (A) (A) (A) (A)
                 (A) (A) (A) (A) (A) (A) (A) (A) (A) (A) (A) (A)
                 (A) (A) (A) (A) (A) (A) (A) (A) (A) (A) (A) (A)
                 (A) (A) (A) (A) (A) (A) (A) (A) (A) (A) (A) (A)
                 (A) (A) (A) (A) (A) (A) (A) (A) (A) (A) (A) (A)
                 (A) (A) (A) (A) (A) (A) (A) (A) (A) (A) (A) (A)
                 (A) (A) (A) (A) (A) (A) (A) (A) (A) (A) (A) (A)
                 (A) (A) (A) (A) (A) (A) (A) (A) (A) (A) (A) (A)
                 (A) (A) (A) (A) (A) (A) (A) (A) (A) (A) (A) (A)
                 (A) (A) (A) (A) (A) (A) (A) (A) (A) (A) (A) (A)
                 (A) (A) (A) (A) (A) (A) (A) (A) (A) (A) (A) (A)
                 (A) (A) (A) (A) (A) (A) (A) (A) (A) (A) (A) (A)
                 (A) (A) (A)
 The electronic state is 1-A.
 Alpha  occ. eigenvalues --  -24.80628 -24.80370 -19.21794 -14.42554 -10.40595
 Alpha  occ. eigenvalues --  -10.36335 -10.24323  -1.31620  -1.25831  -1.08076
 Alpha  occ. eigenvalues --   -0.94979  -0.78178  -0.71483  -0.62823  -0.59725
 Alpha  occ. eigenvalues --   -0.59545  -0.57704  -0.49375  -0.48562  -0.48071
 Alpha  occ. eigenvalues --   -0.46134  -0.44909  -0.44449  -0.41022  -0.40523
 Alpha  occ. eigenvalues --   -0.38661  -0.31577  -0.29024
 Alpha virt. eigenvalues --   -0.04563   0.05207   0.07670   0.09573   0.11632
 Alpha virt. eigenvalues --    0.12337   0.13458   0.14082   0.15245   0.17777
 Alpha virt. eigenvalues --    0.20484   0.22642   0.23752   0.24921   0.26219
 Alpha virt. eigenvalues --    0.27704   0.30536   0.30856   0.32470   0.33303
 Alpha virt. eigenvalues --    0.36297   0.39099   0.39721   0.40626   0.43199
 Alpha virt. eigenvalues --    0.43299   0.46421   0.48170   0.48574   0.49420
 Alpha virt. eigenvalues --    0.50798   0.52797   0.53953   0.55376   0.58372
 Alpha virt. eigenvalues --    0.59487   0.61101   0.67126   0.69285   0.70678
 Alpha virt. eigenvalues --    0.72929   0.74546   0.77919   0.79243   0.82207
 Alpha virt. eigenvalues --    0.84664   0.86339   0.88088   0.91609   0.93957
 Alpha virt. eigenvalues --    0.96163   0.97361   1.01161   1.02880   1.03787
 Alpha virt. eigenvalues --    1.09270   1.11657   1.18880   1.23520   1.26617
 Alpha virt. eigenvalues --    1.28639   1.34888   1.37205   1.44254   1.46211
 Alpha virt. eigenvalues --    1.47894   1.52171   1.53262   1.55041   1.56340
 Alpha virt. eigenvalues --    1.56957   1.59909   1.60331   1.64196   1.71412
 Alpha virt. eigenvalues --    1.71965   1.75814   1.82245   1.83312   1.88582
 Alpha virt. eigenvalues --    1.92012   1.92520   1.94050   1.94173   1.97642
 Alpha virt. eigenvalues --    1.99973   2.02110   2.06465   2.11376   2.13482
 Alpha virt. eigenvalues --    2.16182   2.17151   2.21303   2.23528   2.25630
 Alpha virt. eigenvalues --    2.29907   2.32124   2.35978   2.36619   2.36943
 Alpha virt. eigenvalues --    2.38126   2.44160   2.46617   2.51151   2.55753
 Alpha virt. eigenvalues --    2.58688   2.59582   2.64355   2.65653   2.69678
 Alpha virt. eigenvalues --    2.73884   2.74831   2.78056   2.84269   2.88546
 Alpha virt. eigenvalues --    2.90314   2.93028   2.95850   3.00644   3.04525
 Alpha virt. eigenvalues --    3.06051   3.06624   3.07743   3.11468   3.13430
 Alpha virt. eigenvalues --    3.13909   3.16455   3.18120   3.19813   3.22520
 Alpha virt. eigenvalues --    3.24423   3.26204   3.29814   3.30540   3.33036
 Alpha virt. eigenvalues --    3.38550   3.39465   3.44688   3.48865   3.52397
 Alpha virt. eigenvalues --    3.55285   3.56299   3.60458   3.62252   3.67657
 Alpha virt. eigenvalues --    3.68908   3.80251   3.82851   3.84632   3.86524
 Alpha virt. eigenvalues --    3.92449   3.98472   4.01786   4.04558   4.09146
 Alpha virt. eigenvalues --    4.11960   4.15555   4.27232   4.37602   4.41159
 Alpha virt. eigenvalues --    4.45198   4.54332   4.62009   4.71598   4.79064
 Alpha virt. eigenvalues --    4.97000   4.98811   5.00749   5.10682   5.12076
 Alpha virt. eigenvalues --    5.14914   5.20806   5.21844   5.25069   5.30716
 Alpha virt. eigenvalues --    5.38742   5.46404   5.55968   5.68945   5.83065
 Alpha virt. eigenvalues --    6.01595   6.19528   6.38171   6.40566   6.52100
 Alpha virt. eigenvalues --    6.79836   6.85176   6.85767   6.86136   6.86793
 Alpha virt. eigenvalues --    6.88104   6.88941   6.94340   6.97917   7.02003
 Alpha virt. eigenvalues --    7.04928   7.09561   7.23801   7.26949   7.32307
 Alpha virt. eigenvalues --    7.37097   7.52374   8.30246   8.36145   8.39561
 Alpha virt. eigenvalues --    8.44813   8.72951   8.79813   8.84896   8.94457
 Alpha virt. eigenvalues --    8.98911   9.01433  22.50157  22.60269  22.92422
 Alpha virt. eigenvalues --   32.23345  43.88426  57.20791  57.28351
          Condensed to atoms (all electrons):
               1          2          3          4          5          6
     1  C    4.695344   0.595281   0.361629  -0.028161   0.340985  -0.037506
     2  O    0.595281   7.941539  -0.102059   0.004106  -0.051024  -0.009432
     3  N    0.361629  -0.102059   6.516692   0.357308  -0.039738   0.282797
     4  H   -0.028161   0.004106   0.357308   0.446392   0.000369  -0.034106
     5  C    0.340985  -0.051024  -0.039738   0.000369   4.415411   0.003434
     6  C   -0.037506  -0.009432   0.282797  -0.034106   0.003434   4.854075
     7  H   -0.004626   0.003871  -0.052594  -0.005621   0.001057   0.434490
     8  H    0.007776   0.001985  -0.027427  -0.004158   0.000127   0.399827
     9  H   -0.014447   0.010927  -0.027017   0.007163  -0.000074   0.407783
    10  F   -0.045455   0.000961  -0.000104   0.001440   0.308118  -0.001618
    11  H   -0.069483   0.010566   0.006492   0.001081   0.430471  -0.000762
    12  F   -0.057805   0.002372   0.004250   0.003116   0.307528  -0.000223
               7          8          9         10         11         12
     1  C   -0.004626   0.007776  -0.014447  -0.045455  -0.069483  -0.057805
     2  O    0.003871   0.001985   0.010927   0.000961   0.010566   0.002372
     3  N   -0.052594  -0.027427  -0.027017  -0.000104   0.006492   0.004250
     4  H   -0.005621  -0.004158   0.007163   0.001440   0.001081   0.003116
     5  C    0.001057   0.000127  -0.000074   0.308118   0.430471   0.307528
     6  C    0.434490   0.399827   0.407783  -0.001618  -0.000762  -0.000223
     7  H    0.533284  -0.025292  -0.032112   0.000385  -0.000176   0.000002
     8  H   -0.025292   0.514620  -0.018082  -0.000017   0.000014  -0.000006
     9  H   -0.032112  -0.018082   0.517970  -0.000020   0.000003  -0.000092
    10  F    0.000385  -0.000017  -0.000020   9.006165  -0.043546  -0.045269
    11  H   -0.000176   0.000014   0.000003  -0.043546   0.585262  -0.040152
    12  F    0.000002  -0.000006  -0.000092  -0.045269  -0.040152   9.014216
 Mulliken charges:
               1
     1  C    0.256467
     2  O   -0.409094
     3  N   -0.280230
     4  H    0.251071
     5  C    0.283336
     6  C   -0.298760
     7  H    0.147332
     8  H    0.150632
     9  H    0.147996
    10  F   -0.181041
    11  H    0.120228
    12  F   -0.187938
 Sum of Mulliken charges =   0.00000
 Mulliken charges with hydrogens summed into heavy atoms:
               1
     1  C    0.256467
     2  O   -0.409094
     3  N   -0.029159
     5  C    0.403564
     6  C    0.147201
    10  F   -0.181041
    12  F   -0.187938
 Electronic spatial extent (au):  <R**2>=            784.5727
 Charge=              0.0000 electrons
 Dipole moment (field-independent basis, Debye):
    X=              0.3913    Y=             -2.0509    Z=              1.1452  Tot=              2.3813
 Quadrupole moment (field-independent basis, Debye-Ang):
   XX=            -36.5764   YY=            -43.4043   ZZ=            -40.3234
   XY=             -5.2573   XZ=              4.4507   YZ=             -1.9060
 Traceless Quadrupole moment (field-independent basis, Debye-Ang):
   XX=              3.5249   YY=             -3.3029   ZZ=             -0.2220
   XY=             -5.2573   XZ=              4.4507   YZ=             -1.9060
 Octapole moment (field-independent basis, Debye-Ang**2):
  XXX=             -7.3861  YYY=            -13.3041  ZZZ=              2.8837  XYY=             -8.0938
  XXY=             -0.5567  XXZ=              0.7824  XZZ=             -5.3786  YZZ=             -0.7553
  YYZ=              6.7119  XYZ=              1.4559
 Hexadecapole moment (field-independent basis, Debye-Ang**3):
 XXXX=           -558.8124 YYYY=           -203.1296 ZZZZ=           -110.6195 XXXY=             -8.6170
 XXXZ=              4.4191 YYYX=             -3.7606 YYYZ=              3.6488 ZZZX=             -1.8607
 ZZZY=              3.4479 XXYY=           -130.0130 XXZZ=           -119.1981 YYZZ=            -53.0137
 XXYZ=             -6.2526 YYXZ=              3.4695 ZZXY=              2.4629
 N-N= 3.195038085835D+02 E-N=-1.693088124619D+03  KE= 4.447921648349D+02
 No NMR shielding tensors so no spin-rotation constants.
 Leave Link  601 at Fri Feb 14 12:13:52 2025, MaxMem=  8053063680 cpu:               1.0 elap:               0.2
 (Enter /opt/apps/g16_avx2/tar//g16/l701.exe)
 ... and contract with generalized density number  0.
 Compute integral first derivatives.
 R6Disp: Adding Grimme-D3 dispersion energy 1st derivatives to the gradient.
   1 Symmetry operations used in ECPInt.
 ECPInt:  NShTT=    4753 NPrTT=   14704 LenC2=    4635 LenP2D=   11458.
 LDataN:  DoStor=T MaxTD1= 7 Len=  274
 D1PCM: PCM CHGder 1st derivatives, ID1Alg=3 FixD1E=F DoIter=F DoCFld=F I1PDM=0.
 GePol: Maximum number of non-zero 1st derivatives   =     226
 Leave Link  701 at Fri Feb 14 12:13:52 2025, MaxMem=  8053063680 cpu:               6.3 elap:               0.5
 (Enter /opt/apps/g16_avx2/tar//g16/l702.exe)
 L702 exits ... SP integral derivatives will be done elsewhere.
 Leave Link  702 at Fri Feb 14 12:13:52 2025, MaxMem=  8053063680 cpu:               0.1 elap:               0.1
 (Enter /opt/apps/g16_avx2/tar//g16/l703.exe)
 Integral derivatives from FoFJK, PRISM(SPDF).
 Compute integral first derivatives, UseDBF=F ICtDFT=           0.
 Calling FoFJK, ICntrl=      2127 FMM=F ISym2X=0 I1Cent= 0 IOpClX= 0 NMat=1 NMatS=1 NMatT=0.
 FoFJK:  IHMeth= 1 ICntrl=    2127 DoSepK=F KAlg= 0 I1Cent=           0 FoldK=F
 IRaf=         0 NMat=       1 IRICut=       1 DoRegI=T DoRafI=F ISym2E= 0 IDoP0=0 IntGTp=1.
 FoFCou: FMM=F IPFlag=           0 FMFlag=      100000 FMFlg1=         800
         NFxFlg=           0 DoJE=F BraDBF=F KetDBF=F FulRan=T
         wScrn=  0.000000 ICntrl=      2127 IOpCl=  0 I1Cent=           0 NGrid=           0
         NMat0=    1 NMatS0=      1 NMatT0=    0 NMatD0=    1 NMtDS0=    0 NMtDT0=    0
 Symmetry not used in FoFCou.
 Leave Link  703 at Fri Feb 14 12:13:55 2025, MaxMem=  8053063680 cpu:              45.4 elap:               2.9
 (Enter /opt/apps/g16_avx2/tar//g16/l716.exe)
 Dipole        = 1.53959174D-01-8.06872334D-01 4.50569003D-01
 ***** Axes restored to original set *****
 -------------------------------------------------------------------
 Center     Atomic                   Forces (Hartrees/Bohr)
 Number     Number              X              Y              Z
 -------------------------------------------------------------------
      1        6           0.024409270   -0.064947593    0.010825435
      2        8           0.026872162    0.067764086    0.000685328
      3        7          -0.068064679   -0.011848555   -0.026988047
      4        1           0.005091058    0.015831501    0.001428537
      5        6           0.017558123   -0.011305594    0.008859130
      6        6          -0.003615294    0.011962566    0.011340647
      7        1          -0.000424067   -0.005361922   -0.015436858
      8        1           0.012827627    0.001641956    0.004230656
      9        1          -0.004147703   -0.009357820    0.005594250
     10        9           0.003223226    0.001457034    0.000533090
     11        1          -0.015019856   -0.000588126    0.003081076
     12        9           0.001290132    0.004752467   -0.004153244
 -------------------------------------------------------------------
 Cartesian Forces:  Max     0.068064679 RMS     0.022175704
 Leave Link  716 at Fri Feb 14 12:13:55 2025, MaxMem=  8053063680 cpu:               0.1 elap:               0.1
 (Enter /opt/apps/g16_avx2/tar//g16/l103.exe)

 GradGradGradGradGradGradGradGradGradGradGradGradGradGradGradGradGradGrad
 Berny optimization.
 FormGI is forming the generalized inverse of G from B-inverse, IUseBI=4.
 Internal  Forces:  Max     0.072301595 RMS     0.016020958
 Search for a local minimum.
 Step number   1 out of a maximum of   55
 All quantities printed in internal units (Hartrees-Bohrs-Radians)
 RMS Force = .16021D-01 SwitMx=.10000D-02 MixMth= 1
 Mixed Optimization -- RFO/linear search
 Second derivative matrix not updated -- first step.
 ITU=  0
     Eigenvalues ---    0.00237   0.00448   0.00766   0.00766   0.03399
     Eigenvalues ---    0.07537   0.07537   0.07672   0.09544   0.11287
     Eigenvalues ---    0.16000   0.16000   0.16000   0.16000   0.23464
     Eigenvalues ---    0.23571   0.24199   0.25000   0.25000   0.28519
     Eigenvalues ---    0.35740   0.35740   0.37230   0.37230   0.37230
     Eigenvalues ---    0.37230   0.47688   0.55021   0.55021   0.80209
 RFO step:  Lambda=-2.72280231D-02 EMin= 2.36824135D-03
 Linear search not attempted -- first point.
 Iteration  1 RMS(Cart)=  0.09703291 RMS(Int)=  0.00571128
 Iteration  2 RMS(Cart)=  0.00859970 RMS(Int)=  0.00173789
 Iteration  3 RMS(Cart)=  0.00002638 RMS(Int)=  0.00173778
 Iteration  4 RMS(Cart)=  0.00000002 RMS(Int)=  0.00173778
 ITry= 1 IFail=0 DXMaxC= 2.25D-01 DCOld= 1.00D+10 DXMaxT= 3.00D-01 DXLimC= 3.00D+00 Rises=F
 Variable       Old X    -DE/DX   Delta X   Delta X   Delta X     New X
                                 (Linear)    (Quad)   (Total)
    R1        2.37803  -0.07230   0.00000  -0.08718  -0.08718   2.29085
    R2        2.77790  -0.06114   0.00000  -0.15896  -0.15896   2.61893
    R3        2.91018  -0.00987   0.00000  -0.03158  -0.03158   2.87859
    R4        1.88973   0.01384   0.00000   0.02745   0.02745   1.91717
    R5        2.77790   0.00117   0.00000   0.00303   0.00303   2.78093
    R6        2.55113  -0.00010   0.00000  -0.00017  -0.00017   2.55096
    R7        2.02201   0.01526   0.00000   0.03820   0.03820   2.06021
    R8        2.55113   0.00198   0.00000   0.00344   0.00344   2.55457
    R9        2.02201   0.01580   0.00000   0.03955   0.03955   2.06156
   R10        2.02201   0.01348   0.00000   0.03373   0.03373   2.05574
   R11        2.02201   0.01163   0.00000   0.02912   0.02912   2.05113
    A1        2.09440   0.01836   0.00000   0.06624   0.06582   2.16022
    A2        2.09440  -0.00372   0.00000  -0.01340  -0.01373   2.08066
    A3        2.09440  -0.01465   0.00000  -0.05284  -0.05320   2.04119
    A4        1.91063  -0.00645   0.00000   0.01082   0.00294   1.91357
    A5        1.91063   0.02172   0.00000   0.10070   0.09587   2.00651
    A6        1.91063   0.00172   0.00000   0.06311   0.05827   1.96890
    A7        1.91063  -0.00365   0.00000  -0.02071  -0.02066   1.88997
    A8        1.91063   0.00276   0.00000   0.02093   0.02063   1.93127
    A9        1.91063   0.00641   0.00000   0.02092   0.02059   1.93122
   A10        1.91063   0.00070   0.00000   0.00199   0.00208   1.91272
   A11        1.91063  -0.00574   0.00000  -0.03461  -0.03460   1.87603
   A12        1.91063  -0.00048   0.00000   0.01147   0.01084   1.92148
   A13        1.91063   0.00688   0.00000   0.04028   0.04025   1.95089
   A14        1.91063  -0.00391   0.00000  -0.02302  -0.02304   1.88760
   A15        1.91063  -0.00003   0.00000  -0.00154  -0.00174   1.90889
   A16        1.91063  -0.00070   0.00000  -0.00096  -0.00081   1.90982
   A17        1.91063  -0.00221   0.00000  -0.00752  -0.00772   1.90291
   A18        1.91063  -0.00003   0.00000  -0.00724  -0.00743   1.90320
    D1        2.61799   0.00577   0.00000   0.07620   0.07681   2.69480
    D2        0.52360  -0.00569   0.00000  -0.06938  -0.06856   0.45504
    D3       -0.52360   0.00419   0.00000   0.02652   0.02570  -0.49790
    D4       -2.61799  -0.00726   0.00000  -0.11906  -0.11967  -2.73766
    D5       -1.57080  -0.00243   0.00000  -0.03171  -0.03117  -1.60196
    D6        0.52360  -0.00212   0.00000  -0.02913  -0.02891   0.49469
    D7        2.61799   0.00291   0.00000   0.01055   0.01130   2.62929
    D8        1.57080  -0.00086   0.00000   0.01798   0.01751   1.58830
    D9       -2.61799  -0.00055   0.00000   0.02055   0.01976  -2.59823
   D10       -0.52360   0.00448   0.00000   0.06023   0.05997  -0.46363
   D11        1.04720   0.00319   0.00000   0.05256   0.05461   1.10181
   D12        3.14159   0.00416   0.00000   0.06195   0.06372  -3.07788
   D13       -1.04720   0.00170   0.00000   0.03804   0.03995  -1.00724
   D14       -1.04720  -0.00326   0.00000  -0.06101  -0.06278  -1.10997
   D15        1.04720  -0.00229   0.00000  -0.05162  -0.05367   0.99353
   D16        3.14159  -0.00475   0.00000  -0.07552  -0.07743   3.06416
         Item               Value     Threshold  Converged?
 Maximum Force            0.072302     0.000450     NO 
 RMS     Force            0.016021     0.000300     NO 
 Maximum Displacement     0.225310     0.001800     NO 
 RMS     Displacement     0.099554     0.001200     NO 
 Predicted change in Energy=-1.536649D-02
 Lowest energy point so far.  Saving SCF results.
 GradGradGradGradGradGradGradGradGradGradGradGradGradGradGradGradGradGrad

 Leave Link  103 at Fri Feb 14 12:13:55 2025, MaxMem=  8053063680 cpu:               0.2 elap:               0.1
 (Enter /opt/apps/g16_avx2/tar//g16/l202.exe)
                          Input orientation:                          
 ---------------------------------------------------------------------
 Center     Atomic      Atomic             Coordinates (Angstroms)
 Number     Number       Type             X           Y           Z
 ---------------------------------------------------------------------
      1          6           0        0.620797    0.768866    0.115237
      2          8           0       -0.023283   -0.257492    0.078675
      3          7           0        1.979812    0.816434    0.382597
      4          1           0        2.380485    1.649798   -0.034804
      5          6           0       -0.092291    2.101291   -0.075939
      6          6           0        2.723245   -0.406715    0.040787
      7          1           0        2.692004   -0.613446   -1.029921
      8          1           0        3.756637   -0.273764    0.353585
      9          1           0        2.296609   -1.248856    0.576410
     10          9           0       -0.061127    2.413857   -1.388793
     11          1           0       -1.127476    2.035037    0.259575
     12          9           0        0.550081    3.085868    0.591428
 ---------------------------------------------------------------------
                    Distance matrix (angstroms):
                    1          2          3          4          5
     1  C    0.000000
     2  O    1.212265   0.000000
     3  N    1.385881   2.293049   0.000000
     4  H    1.973590   3.070625   1.014524   0.000000
     5  C    1.523286   2.364852   2.480872   2.513993   0.000000
     6  C    2.409942   2.750839   1.471605   2.086252   3.772395
     7  H    2.740815   2.954399   2.132365   2.491902   4.004020
     8  H    3.313212   3.789938   2.084821   2.396816   4.543085
     9  H    2.663124   2.571467   2.098416   2.963582   4.166040
    10  F    2.330906   3.048115   3.139270   2.894571   1.349909
    11  H    2.163442   2.551010   3.339965   3.541307   1.090214
    12  F    2.366486   3.430702   2.690366   2.409324   1.351818
                    6          7          8          9         10
     6  C    0.000000
     7  H    1.090930   0.000000
     8  H    1.087850   1.778459   0.000000
     9  H    1.085409   1.772113   1.769785   0.000000
    10  F    4.213318   4.107685   4.983423   4.778746   0.000000
    11  H    4.564873   4.823451   5.403143   4.754860   1.999431
    12  F    4.150178   4.571818   4.650343   4.673373   2.178635
                   11         12
    11  H    0.000000
    12  F    2.007130   0.000000
 Stoichiometry    C3H5F2NO
 Framework group  C1[X(C3H5F2NO)]
 Deg. of freedom    30
 Full point group                 C1      NOp   1
 RotChk:  IX=0 Diff= 3.49D-02
 Largest Abelian subgroup         C1      NOp   1
 Largest concise Abelian subgroup C1      NOp   1
                         Standard orientation:                         
 ---------------------------------------------------------------------
 Center     Atomic      Atomic             Coordinates (Angstroms)
 Number     Number       Type             X           Y           Z
 ---------------------------------------------------------------------
      1          6           0        0.261832    0.411257   -0.259765
      2          8           0        0.691857    1.524868   -0.470800
      3          7           0        1.063379   -0.711063   -0.123441
      4          1           0        0.584730   -1.405479    0.440421
      5          6           0       -1.244867    0.194852   -0.201199
      6          6           0        2.433170   -0.443083    0.342905
      7          1           0        2.442538   -0.012964    1.345421
      8          1           0        2.979652   -1.383696    0.347664
      9          1           0        2.918492    0.245048   -0.341968
     10          9           0       -1.642436    0.328530    1.081892
     11          1           0       -1.762780    0.925891   -0.822419
     12          9           0       -1.562225   -1.058359   -0.596367
 ---------------------------------------------------------------------
 Rotational constants (GHZ):           4.3866970           1.8306725           1.6027220
 Leave Link  202 at Fri Feb 14 12:13:56 2025, MaxMem=  8053063680 cpu:               0.0 elap:               0.1
 (Enter /opt/apps/g16_avx2/tar//g16/l301.exe)
 Standard basis: def2TZVP (5D, 7F)
 Ernie: Thresh=  0.10000D-02 Tol=  0.10000D-05 Strict=F.
 There are   282 symmetry adapted cartesian basis functions of A   symmetry.
 There are   247 symmetry adapted basis functions of A   symmetry.
   247 basis functions,   397 primitive gaussians,   282 cartesian basis functions
    28 alpha electrons       28 beta electrons
       nuclear repulsion energy       323.6202089314 Hartrees.
 IExCor= 1009 DFT=T Ex+Corr=PBE1PBE ExCW=0 ScaHFX=  0.250000
 ScaDFX=  0.750000  0.750000  1.000000  1.000000 ScalE2=  1.000000  1.000000
 IRadAn=  99590 IRanWt=     -1 IRanGd=            0 ICorTp=0 IEmpDi=131
 NAtoms=   12 NActive=   12 NUniq=   12 SFac= 1.00D+00 NAtFMM=   60 NAOKFM=F Big=F
 Integral buffers will be    131072 words long.
 Raffenetti 2 integral format.
 Two-electron integral symmetry is turned on.
 R6Disp:  Grimme-D3 Dispersion energy=       -0.0044589996 Hartrees.
 Nuclear repulsion after empirical dispersion term =      323.6157499318 Hartrees.
 ------------------------------------------------------------------------------
 Polarizable Continuum Model (PCM)
 =================================
 Model                : PCM.
 Atomic radii         : UFF (Universal Force Field).
 Polarization charges : Total charges.
 Charge compensation  : None.
 Solution method      : On-the-fly selection.
 Cavity type          : Scaled VdW (van der Waals Surface) (Alpha=1.100).
 Cavity algorithm     : GePol (No added spheres)
                        Default sphere list used, NSphG=   12.
                        Lebedev-Laikov grids with approx.  5.0 points / Ang**2.
                        Smoothing algorithm: York/Karplus (Gamma=1.0000).
                        Polarization charges: spherical gaussians, with
                                              point-specific exponents (IZeta= 3).
                        Self-potential: point-specific (ISelfS= 7).
                        Self-field    : sphere-specific E.n sum rule (ISelfD= 2).
 1st derivatives      : Analytical E(r).r(x)/FMM algorithm (CHGder, D1EAlg=3).
                        Cavity 1st derivative terms included.
 Solvent              : Water, Eps=  78.355300 Eps(inf)=   1.777849
 ------------------------------------------------------------------------------
 Spheres list:
 ISph  on   Nord     Re0    Alpha      Xe            Ye            Ze
    1   C      1    1.9255  1.100      0.261832      0.411257     -0.259765
    2   O      2    1.7500  1.100      0.691857      1.524868     -0.470800
    3   N      3    1.8300  1.100      1.063379     -0.711063     -0.123441
    4   H      4    1.4430  1.100      0.584730     -1.405479      0.440421
    5   C      5    1.9255  1.100     -1.244867      0.194852     -0.201199
    6   C      6    1.9255  1.100      2.433170     -0.443083      0.342905
    7   H      7    1.4430  1.100      2.442538     -0.012964      1.345421
    8   H      8    1.4430  1.100      2.979652     -1.383696      0.347664
    9   H      9    1.4430  1.100      2.918492      0.245048     -0.341968
   10   F     10    1.6820  1.100     -1.642436      0.328530      1.081892
   11   H     11    1.4430  1.100     -1.762780      0.925891     -0.822419
   12   F     12    1.6820  1.100     -1.562225     -1.058359     -0.596367
 ------------------------------------------------------------------------------
 GePol: Number of generator spheres                  =      12
 GePol: Total number of spheres                      =      12
 GePol: Number of exposed spheres                    =      12 (100.00%)
 GePol: Number of points                             =    1185
 GePol: Average weight of points                     =       0.13
 GePol: Minimum weight of points                     =   0.68D-07
 GePol: Maximum weight of points                     =    0.20577
 GePol: Number of points with low weight             =      51
 GePol: Fraction of low-weight points (<1% of avg)   =       4.30%
 GePol: Cavity surface area                          =    152.688 Ang**2
 GePol: Cavity volume                                =    139.643 Ang**3
 Leave Link  301 at Fri Feb 14 12:13:56 2025, MaxMem=  8053063680 cpu:               0.5 elap:               0.1
 (Enter /opt/apps/g16_avx2/tar//g16/l302.exe)
 NPDir=0 NMtPBC=     1 NCelOv=     1 NCel=       1 NClECP=     1 NCelD=      1
         NCelK=      1 NCelE2=     1 NClLst=     1 CellRange=     0.0.
 One-electron integrals computed using PRISM.
 One-electron integral symmetry used in STVInt
   1 Symmetry operations used in ECPInt.
 ECPInt:  NShTT=    4753 NPrTT=   14704 LenC2=    4638 LenP2D=   11504.
 LDataN:  DoStor=T MaxTD1= 6 Len=  172
 NBasis=   247 RedAO= T EigKep=  4.59D-04  NBF=   247
 NBsUse=   247 1.00D-06 EigRej= -1.00D+00 NBFU=   247
 Precomputing XC quadrature grid using
 IXCGrd= 4 IRadAn=       99590 IRanWt=          -1 IRanGd=           0 AccXCQ= 0.00D+00.
 Generated NRdTot=       0 NPtTot=           0 NUsed=           0 NTot=          32
 NSgBfM=   281   281   281   281   281 MxSgAt=    12 MxSgA2=    12.
 Leave Link  302 at Fri Feb 14 12:13:56 2025, MaxMem=  8053063680 cpu:               1.6 elap:               0.2
 (Enter /opt/apps/g16_avx2/tar//g16/l303.exe)
 DipDrv:  MaxL=1.
 Leave Link  303 at Fri Feb 14 12:13:56 2025, MaxMem=  8053063680 cpu:               0.2 elap:               0.1
 (Enter /opt/apps/g16_avx2/tar//g16/l401.exe)
 Initial guess from the checkpoint file:  "/scratch/Gau-51731.chk"
 B after Tr=    -0.000000   -0.000000   -0.000000
         Rot=    0.999917   -0.012006    0.000008   -0.004660 Ang=  -1.48 deg.
 Guess basis will be translated and rotated to current coordinates.
 JPrj=2 DoOrth=T DoCkMO=T.
 Generating alternative initial guess.
 ExpMin= 9.52D-02 ExpMax= 3.55D+04 ExpMxC= 1.21D+03 IAcc=4 IRadAn=    199590 AccDes= 0.00D+00
 Harris functional with IExCor= 1009 and IRadAn=  199590 diagonalized for initial guess.
 HarFok:  IExCor= 1009 AccDes= 0.00D+00 IRadAn=    199590 IDoV= 1 UseB2=F ITyADJ=14
 ICtDFT=  3500011 ScaDFX=  1.000000  1.000000  1.000000  1.000000
 FoFCou: FMM=F IPFlag=           0 FMFlag=      100000 FMFlg1=           0
         NFxFlg=           0 DoJE=T BraDBF=F KetDBF=T FulRan=T
         wScrn=  0.000000 ICntrl=       500 IOpCl=  0 I1Cent=   200000004 NGrid=           0
         NMat0=    1 NMatS0=      1 NMatT0=    0 NMatD0=    1 NMtDS0=    0 NMtDT0=    0
 Petite list used in FoFCou.
 Harris En= -446.761313464321    
 Leave Link  401 at Fri Feb 14 12:13:57 2025, MaxMem=  8053063680 cpu:              10.5 elap:               0.7
 (Enter /opt/apps/g16_avx2/tar//g16/l502.exe)
 Keep R1 ints in memory in canonical form, NReq=486867568.
 FoFCou: FMM=F IPFlag=           0 FMFlag=           0 FMFlg1=           0
         NFxFlg=           0 DoJE=F BraDBF=F KetDBF=F FulRan=T
         wScrn=  0.000000 ICntrl=       600 IOpCl=  0 I1Cent=           0 NGrid=           0
         NMat0=    1 NMatS0=  30628 NMatT0=    0 NMatD0=    1 NMtDS0=    0 NMtDT0=    0
 Symmetry not used in FoFCou.
 Two-electron integral symmetry not used.
 Closed shell SCF:
 Using DIIS extrapolation, IDIIS=  1040.
 NGot=  8053063680 LenX=  7583845040 LenY=  7583765075
 Requested convergence on RMS density matrix=1.00D-08 within 128 cycles.
 Requested convergence on MAX density matrix=1.00D-06.
 Requested convergence on             energy=1.00D-06.
 No special actions if energy rises.

 Cycle   1  Pass 1  IDiag  1:
 Inv3:  Mode=1 IEnd=     4212675.
 Iteration    1 A*A^-1 deviation from unit magnitude is 3.55D-15 for     57.
 Iteration    1 A*A^-1 deviation from orthogonality  is 2.10D-15 for   1127    371.
 Iteration    1 A^-1*A deviation from unit magnitude is 3.55D-15 for     57.
 Iteration    1 A^-1*A deviation from orthogonality  is 2.22D-15 for    983     53.
 E= -446.707056029875    
 DIIS: error= 5.44D-03 at cycle   1 NSaved=   1.
 NSaved= 1 IEnMin= 1 EnMin= -446.707056029875     IErMin= 1 ErrMin= 5.44D-03
 ErrMax= 5.44D-03  0.00D+00 EMaxC= 1.00D-01 BMatC= 1.26D-02 BMatP= 1.26D-02
 IDIUse=3 WtCom= 9.46D-01 WtEn= 5.44D-02
 Coeff-Com:  0.100D+01
 Coeff-En:   0.100D+01
 Coeff:      0.100D+01
 Gap=     0.708 Goal=   None    Shift=    0.000
 GapD=    0.708 DampG=2.000 DampE=1.000 DampFc=2.0000 IDamp=-1.
 RMSDP=4.88D-04 MaxDP=1.06D-02              OVMax= 3.74D-02

 Cycle   2  Pass 1  IDiag  1:
 E= -446.721975706363     Delta-E=       -0.014919676488 Rises=F Damp=F
 DIIS: error= 1.16D-03 at cycle   2 NSaved=   2.
 NSaved= 2 IEnMin= 2 EnMin= -446.721975706363     IErMin= 2 ErrMin= 1.16D-03
 ErrMax= 1.16D-03  0.00D+00 EMaxC= 1.00D-01 BMatC= 8.52D-04 BMatP= 1.26D-02
 IDIUse=3 WtCom= 9.88D-01 WtEn= 1.16D-02
 Coeff-Com:  0.573D-01 0.943D+00
 Coeff-En:   0.000D+00 0.100D+01
 Coeff:      0.566D-01 0.943D+00
 Gap=     0.269 Goal=   None    Shift=    0.000
 RMSDP=1.70D-04 MaxDP=4.86D-03 DE=-1.49D-02 OVMax= 1.34D-02

 Cycle   3  Pass 1  IDiag  1:
 E= -446.722085612314     Delta-E=       -0.000109905951 Rises=F Damp=F
 DIIS: error= 1.25D-03 at cycle   3 NSaved=   3.
 NSaved= 3 IEnMin= 3 EnMin= -446.722085612314     IErMin= 2 ErrMin= 1.16D-03
 ErrMax= 1.25D-03  0.00D+00 EMaxC= 1.00D-01 BMatC= 7.98D-04 BMatP= 8.52D-04
 IDIUse=3 WtCom= 9.87D-01 WtEn= 1.25D-02
 Coeff-Com: -0.307D-01 0.500D+00 0.531D+00
 Coeff-En:   0.000D+00 0.458D+00 0.542D+00
 Coeff:     -0.303D-01 0.500D+00 0.531D+00
 Gap=     0.268 Goal=   None    Shift=    0.000
 RMSDP=9.46D-05 MaxDP=3.11D-03 DE=-1.10D-04 OVMax= 9.11D-03

 Cycle   4  Pass 1  IDiag  1:
 E= -446.722715732521     Delta-E=       -0.000630120207 Rises=F Damp=F
 DIIS: error= 2.46D-04 at cycle   4 NSaved=   4.
 NSaved= 4 IEnMin= 4 EnMin= -446.722715732521     IErMin= 4 ErrMin= 2.46D-04
 ErrMax= 2.46D-04  0.00D+00 EMaxC= 1.00D-01 BMatC= 5.13D-05 BMatP= 7.98D-04
 IDIUse=3 WtCom= 9.98D-01 WtEn= 2.46D-03
 Coeff-Com: -0.193D-01 0.234D+00 0.300D+00 0.485D+00
 Coeff-En:   0.000D+00 0.000D+00 0.000D+00 0.100D+01
 Coeff:     -0.192D-01 0.233D+00 0.300D+00 0.487D+00
 Gap=     0.267 Goal=   None    Shift=    0.000
 RMSDP=2.04D-05 MaxDP=9.34D-04 DE=-6.30D-04 OVMax= 2.19D-03

 Cycle   5  Pass 1  IDiag  1:
 E= -446.722748426736     Delta-E=       -0.000032694215 Rises=F Damp=F
 DIIS: error= 9.30D-05 at cycle   5 NSaved=   5.
 NSaved= 5 IEnMin= 5 EnMin= -446.722748426736     IErMin= 5 ErrMin= 9.30D-05
 ErrMax= 9.30D-05  0.00D+00 EMaxC= 1.00D-01 BMatC= 5.86D-06 BMatP= 5.13D-05
 IDIUse=1 WtCom= 1.00D+00 WtEn= 0.00D+00
 Coeff-Com: -0.338D-02 0.245D-01 0.611D-01 0.274D+00 0.644D+00
 Coeff:     -0.338D-02 0.245D-01 0.611D-01 0.274D+00 0.644D+00
 Gap=     0.267 Goal=   None    Shift=    0.000
 RMSDP=6.22D-06 MaxDP=2.92D-04 DE=-3.27D-05 OVMax= 7.45D-04

 Cycle   6  Pass 1  IDiag  1:
 E= -446.722752918290     Delta-E=       -0.000004491554 Rises=F Damp=F
 DIIS: error= 2.42D-05 at cycle   6 NSaved=   6.
 NSaved= 6 IEnMin= 6 EnMin= -446.722752918290     IErMin= 6 ErrMin= 2.42D-05
 ErrMax= 2.42D-05  0.00D+00 EMaxC= 1.00D-01 BMatC= 4.60D-07 BMatP= 5.86D-06
 IDIUse=1 WtCom= 1.00D+00 WtEn= 0.00D+00
 Coeff-Com: -0.602D-03-0.214D-02 0.143D-01 0.115D+00 0.344D+00 0.529D+00
 Coeff:     -0.602D-03-0.214D-02 0.143D-01 0.115D+00 0.344D+00 0.529D+00
 Gap=     0.267 Goal=   None    Shift=    0.000
 RMSDP=1.77D-06 MaxDP=6.43D-05 DE=-4.49D-06 OVMax= 1.43D-04

 Cycle   7  Pass 1  IDiag  1:
 E= -446.722753202395     Delta-E=       -0.000000284105 Rises=F Damp=F
 DIIS: error= 5.95D-06 at cycle   7 NSaved=   7.
 NSaved= 7 IEnMin= 7 EnMin= -446.722753202395     IErMin= 7 ErrMin= 5.95D-06
 ErrMax= 5.95D-06  0.00D+00 EMaxC= 1.00D-01 BMatC= 2.76D-08 BMatP= 4.60D-07
 IDIUse=1 WtCom= 1.00D+00 WtEn= 0.00D+00
 Coeff-Com:  0.223D-03-0.512D-02-0.299D-02 0.882D-02 0.633D-01 0.220D+00
 Coeff-Com:  0.715D+00
 Coeff:      0.223D-03-0.512D-02-0.299D-02 0.882D-02 0.633D-01 0.220D+00
 Coeff:      0.715D+00
 Gap=     0.267 Goal=   None    Shift=    0.000
 RMSDP=5.99D-07 MaxDP=1.63D-05 DE=-2.84D-07 OVMax= 7.00D-05

 Cycle   8  Pass 1  IDiag  1:
 E= -446.722753224013     Delta-E=       -0.000000021618 Rises=F Damp=F
 DIIS: error= 2.39D-06 at cycle   8 NSaved=   8.
 NSaved= 8 IEnMin= 8 EnMin= -446.722753224013     IErMin= 8 ErrMin= 2.39D-06
 ErrMax= 2.39D-06  0.00D+00 EMaxC= 1.00D-01 BMatC= 2.21D-09 BMatP= 2.76D-08
 IDIUse=1 WtCom= 1.00D+00 WtEn= 0.00D+00
 Coeff-Com:  0.117D-03-0.162D-02-0.208D-02-0.640D-02-0.217D-02 0.365D-01
 Coeff-Com:  0.266D+00 0.710D+00
 Coeff:      0.117D-03-0.162D-02-0.208D-02-0.640D-02-0.217D-02 0.365D-01
 Coeff:      0.266D+00 0.710D+00
 Gap=     0.267 Goal=   None    Shift=    0.000
 RMSDP=2.11D-07 MaxDP=5.04D-06 DE=-2.16D-08 OVMax= 2.84D-05

 Cycle   9  Pass 1  IDiag  1:
 E= -446.722753226469     Delta-E=       -0.000000002456 Rises=F Damp=F
 DIIS: error= 5.99D-07 at cycle   9 NSaved=   9.
 NSaved= 9 IEnMin= 9 EnMin= -446.722753226469     IErMin= 9 ErrMin= 5.99D-07
 ErrMax= 5.99D-07  0.00D+00 EMaxC= 1.00D-01 BMatC= 2.28D-10 BMatP= 2.21D-09
 IDIUse=1 WtCom= 1.00D+00 WtEn= 0.00D+00
 Coeff-Com:  0.126D-04 0.187D-03-0.281D-03-0.373D-02-0.971D-02-0.183D-01
 Coeff-Com: -0.131D-01 0.240D+00 0.805D+00
 Coeff:      0.126D-04 0.187D-03-0.281D-03-0.373D-02-0.971D-02-0.183D-01
 Coeff:     -0.131D-01 0.240D+00 0.805D+00
 Gap=     0.267 Goal=   None    Shift=    0.000
 RMSDP=7.95D-08 MaxDP=2.43D-06 DE=-2.46D-09 OVMax= 1.08D-05

 Cycle  10  Pass 1  IDiag  1:
 E= -446.722753226748     Delta-E=       -0.000000000279 Rises=F Damp=F
 DIIS: error= 1.93D-07 at cycle  10 NSaved=  10.
 NSaved=10 IEnMin=10 EnMin= -446.722753226748     IErMin=10 ErrMin= 1.93D-07
 ErrMax= 1.93D-07  0.00D+00 EMaxC= 1.00D-01 BMatC= 2.62D-11 BMatP= 2.28D-10
 IDIUse=1 WtCom= 1.00D+00 WtEn= 0.00D+00
 Coeff-Com: -0.134D-05 0.183D-03 0.273D-04-0.108D-02-0.377D-02-0.938D-02
 Coeff-Com: -0.233D-01 0.541D-01 0.343D+00 0.640D+00
 Coeff:     -0.134D-05 0.183D-03 0.273D-04-0.108D-02-0.377D-02-0.938D-02
 Coeff:     -0.233D-01 0.541D-01 0.343D+00 0.640D+00
 Gap=     0.267 Goal=   None    Shift=    0.000
 RMSDP=1.75D-08 MaxDP=5.17D-07 DE=-2.79D-10 OVMax= 2.59D-06

 Cycle  11  Pass 1  IDiag  1:
 E= -446.722753226771     Delta-E=       -0.000000000023 Rises=F Damp=F
 DIIS: error= 5.69D-08 at cycle  11 NSaved=  11.
 NSaved=11 IEnMin=11 EnMin= -446.722753226771     IErMin=11 ErrMin= 5.69D-08
 ErrMax= 5.69D-08  0.00D+00 EMaxC= 1.00D-01 BMatC= 3.33D-12 BMatP= 2.62D-11
 IDIUse=1 WtCom= 1.00D+00 WtEn= 0.00D+00
 Coeff-Com: -0.308D-05 0.700D-04 0.545D-04-0.481D-04-0.644D-03-0.228D-02
 Coeff-Com: -0.978D-02-0.627D-02 0.491D-01 0.287D+00 0.683D+00
 Coeff:     -0.308D-05 0.700D-04 0.545D-04-0.481D-04-0.644D-03-0.228D-02
 Coeff:     -0.978D-02-0.627D-02 0.491D-01 0.287D+00 0.683D+00
 Gap=     0.267 Goal=   None    Shift=    0.000
 RMSDP=6.83D-09 MaxDP=1.66D-07 DE=-2.34D-11 OVMax= 7.85D-07

 Error on total polarization charges =  0.00743
 SCF Done:  E(RPBE1PBE) =  -446.722753227     A.U. after   11 cycles
            NFock= 11  Conv=0.68D-08     -V/T= 2.0039
 KE= 4.450058836851D+02 PE=-1.701596498645D+03 EE= 4.862521118014D+02
 Leave Link  502 at Fri Feb 14 12:14:06 2025, MaxMem=  8053063680 cpu:             106.3 elap:               9.0
 (Enter /opt/apps/g16_avx2/tar//g16/l701.exe)
 ... and contract with generalized density number  0.
 Compute integral first derivatives.
 R6Disp: Adding Grimme-D3 dispersion energy 1st derivatives to the gradient.
   1 Symmetry operations used in ECPInt.
 ECPInt:  NShTT=    4753 NPrTT=   14704 LenC2=    4638 LenP2D=   11504.
 LDataN:  DoStor=T MaxTD1= 7 Len=  274
 D1PCM: PCM CHGder 1st derivatives, ID1Alg=3 FixD1E=F DoIter=F DoCFld=F I1PDM=0.
 GePol: Maximum number of non-zero 1st derivatives   =     233
 Leave Link  701 at Fri Feb 14 12:14:06 2025, MaxMem=  8053063680 cpu:               6.1 elap:               0.5
 (Enter /opt/apps/g16_avx2/tar//g16/l702.exe)
 L702 exits ... SP integral derivatives will be done elsewhere.
 Leave Link  702 at Fri Feb 14 12:14:06 2025, MaxMem=  8053063680 cpu:               0.1 elap:               0.1
 (Enter /opt/apps/g16_avx2/tar//g16/l703.exe)
 Integral derivatives from FoFJK, PRISM(SPDF).
 Compute integral first derivatives, UseDBF=F ICtDFT=           0.
 Calling FoFJK, ICntrl=      2127 FMM=F ISym2X=0 I1Cent= 0 IOpClX= 0 NMat=1 NMatS=1 NMatT=0.
 FoFJK:  IHMeth= 1 ICntrl=    2127 DoSepK=F KAlg= 0 I1Cent=           0 FoldK=F
 IRaf=         0 NMat=       1 IRICut=       1 DoRegI=T DoRafI=F ISym2E= 0 IDoP0=0 IntGTp=1.
 FoFCou: FMM=F IPFlag=           0 FMFlag=      100000 FMFlg1=         800
         NFxFlg=           0 DoJE=F BraDBF=F KetDBF=F FulRan=T
         wScrn=  0.000000 ICntrl=      2127 IOpCl=  0 I1Cent=           0 NGrid=           0
         NMat0=    1 NMatS0=      1 NMatT0=    0 NMatD0=    1 NMtDS0=    0 NMtDT0=    0
 Symmetry not used in FoFCou.
 Leave Link  703 at Fri Feb 14 12:14:09 2025, MaxMem=  8053063680 cpu:              46.2 elap:               2.9
 (Enter /opt/apps/g16_avx2/tar//g16/l716.exe)
 Dipole        = 3.47596160D-01-9.45624916D-01 3.52948734D-01
 ***** Axes restored to original set *****
 -------------------------------------------------------------------
 Center     Atomic                   Forces (Hartrees/Bohr)
 Number     Number              X              Y              Z
 -------------------------------------------------------------------
      1        6           0.019388564   -0.010858377    0.014538981
      2        8          -0.003068597    0.001081928   -0.002815526
      3        7          -0.021024943   -0.003519497   -0.028017712
      4        1           0.004402703    0.001447753    0.008099240
      5        6           0.003314923   -0.001731748    0.004945391
      6        6           0.000195609    0.007657430    0.008149319
      7        1          -0.000700814    0.000012843   -0.001092712
      8        1           0.000637327   -0.000378713    0.000097604
      9        1          -0.000840838   -0.000839138    0.000959289
     10        9          -0.000826547    0.001847707   -0.005841808
     11        1          -0.001106993    0.000933851    0.000335497
     12        9          -0.000370395    0.004345962    0.000642437
 -------------------------------------------------------------------
 Cartesian Forces:  Max     0.028017712 RMS     0.007955081
 Leave Link  716 at Fri Feb 14 12:14:09 2025, MaxMem=  8053063680 cpu:               0.1 elap:               0.1
 (Enter /opt/apps/g16_avx2/tar//g16/l103.exe)

 GradGradGradGradGradGradGradGradGradGradGradGradGradGradGradGradGradGrad
 Berny optimization.
 Using GEDIIS/GDIIS optimizer.
 FormGI is forming the generalized inverse of G from B-inverse, IUseBI=4.
 Internal  Forces:  Max     0.019124424 RMS     0.004211791
 Search for a local minimum.
 Step number   2 out of a maximum of   55
 All quantities printed in internal units (Hartrees-Bohrs-Radians)
 RMS Force = .42118D-02 SwitMx=.10000D-02 MixMth= 1
 Mixed Optimization -- RFO/linear search
 Update second derivatives using D2CorX and points    1    2
 DE= -1.74D-02 DEPred=-1.54D-02 R= 1.13D+00
 TightC=F SS=  1.41D+00  RLast= 3.43D-01 DXNew= 5.0454D-01 1.0293D+00
 Trust test= 1.13D+00 RLast= 3.43D-01 DXMaxT set to 5.05D-01
 ITU=  1  0
 Use linear search instead of GDIIS.
     Eigenvalues ---    0.00237   0.00478   0.00766   0.00768   0.02345
     Eigenvalues ---    0.07286   0.07479   0.07682   0.09842   0.12621
     Eigenvalues ---    0.15963   0.16000   0.16000   0.16179   0.21445
     Eigenvalues ---    0.23382   0.23873   0.24377   0.24986   0.28860
     Eigenvalues ---    0.31230   0.36187   0.37228   0.37230   0.37230
     Eigenvalues ---    0.38053   0.47936   0.55010   0.55195   0.86165
 RFO step:  Lambda=-5.68602130D-03 EMin= 2.36665272D-03
 Quartic linear search produced a step of  0.26493.
 Iteration  1 RMS(Cart)=  0.04963782 RMS(Int)=  0.00496072
 Iteration  2 RMS(Cart)=  0.00638243 RMS(Int)=  0.00355351
 Iteration  3 RMS(Cart)=  0.00001170 RMS(Int)=  0.00355350
 Iteration  4 RMS(Cart)=  0.00000005 RMS(Int)=  0.00355350
 ITry= 1 IFail=0 DXMaxC= 1.35D-01 DCOld= 1.00D+10 DXMaxT= 5.05D-01 DXLimC= 3.00D+00 Rises=F
 Variable       Old X    -DE/DX   Delta X   Delta X   Delta X     New X
                                 (Linear)    (Quad)   (Total)
    R1        2.29085   0.00080  -0.02310   0.01079  -0.01230   2.27854
    R2        2.61893  -0.01912  -0.04211  -0.04518  -0.08730   2.53164
    R3        2.87859   0.00424  -0.00837   0.02287   0.01450   2.89310
    R4        1.91717  -0.00041   0.00727  -0.00442   0.00285   1.92002
    R5        2.78093  -0.00761   0.00080  -0.02677  -0.02597   2.75496
    R6        2.55096   0.00609  -0.00005   0.01381   0.01377   2.56473
    R7        2.06021   0.00110   0.01012  -0.00136   0.00876   2.06896
    R8        2.55457   0.00331   0.00091   0.00708   0.00799   2.56256
    R9        2.06156   0.00109   0.01048  -0.00156   0.00892   2.07048
   R10        2.05574   0.00059   0.00894  -0.00247   0.00646   2.06220
   R11        2.05113   0.00146   0.00771   0.00103   0.00875   2.05987
    A1        2.16022   0.00718   0.01744   0.02827   0.04043   2.20065
    A2        2.08066  -0.00114  -0.00364  -0.00086  -0.00922   2.07145
    A3        2.04119  -0.00601  -0.01409  -0.01881  -0.03785   2.00334
    A4        1.91357   0.00194   0.00078   0.08588   0.07407   1.98765
    A5        2.00651   0.00648   0.02540   0.04787   0.06228   2.06878
    A6        1.96890  -0.00087   0.01544   0.04065   0.04313   2.01203
    A7        1.88997   0.00055  -0.00547   0.00797   0.00242   1.89239
    A8        1.93127   0.00003   0.00547  -0.00412   0.00120   1.93247
    A9        1.93122   0.00516   0.00545   0.02631   0.03154   1.96276
   A10        1.91272  -0.00130   0.00055  -0.01416  -0.01360   1.89912
   A11        1.87603  -0.00202  -0.00917   0.00221  -0.00712   1.86891
   A12        1.92148  -0.00247   0.00287  -0.01794  -0.01533   1.90614
   A13        1.95089  -0.00083   0.01066  -0.01475  -0.00411   1.94677
   A14        1.88760   0.00104  -0.00610   0.01417   0.00807   1.89566
   A15        1.90889  -0.00076  -0.00046  -0.00658  -0.00711   1.90178
   A16        1.90982   0.00023  -0.00021   0.00391   0.00373   1.91356
   A17        1.90291   0.00038  -0.00205   0.00040  -0.00174   1.90117
   A18        1.90320  -0.00004  -0.00197   0.00328   0.00127   1.90447
    D1        2.69480   0.00217   0.02035  -0.01892   0.00225   2.69705
    D2        0.45504  -0.00366  -0.01816  -0.18946  -0.21133   0.24371
    D3       -0.49790   0.00298   0.00681   0.17886   0.18937  -0.30853
    D4       -2.73766  -0.00285  -0.03170   0.00832  -0.02421  -2.76187
    D5       -1.60196   0.00156  -0.00826   0.14631   0.13688  -1.46508
    D6        0.49469   0.00032  -0.00766   0.13147   0.12246   0.61715
    D7        2.62929   0.00074   0.00299   0.12388   0.12566   2.75495
    D8        1.58830   0.00052   0.00464  -0.04298  -0.03702   1.55128
    D9       -2.59823  -0.00071   0.00524  -0.05782  -0.05145  -2.64968
   D10       -0.46363  -0.00030   0.01589  -0.06541  -0.04824  -0.51187
   D11        1.10181   0.00333   0.01447   0.08881   0.10450   1.20631
   D12       -3.07788   0.00379   0.01688   0.09388   0.11190  -2.96598
   D13       -1.00724   0.00391   0.01059   0.10231   0.11404  -0.89320
   D14       -1.10997  -0.00427  -0.01663  -0.11006  -0.12781  -1.23778
   D15        0.99353  -0.00382  -0.01422  -0.10499  -0.12041   0.87312
   D16        3.06416  -0.00369  -0.02051  -0.09656  -0.11826   2.94590
         Item               Value     Threshold  Converged?
 Maximum Force            0.019124     0.000450     NO 
 RMS     Force            0.004212     0.000300     NO 
 Maximum Displacement     0.135022     0.001800     NO 
 RMS     Displacement     0.049704     0.001200     NO 
 Predicted change in Energy=-5.157480D-03
 Lowest energy point so far.  Saving SCF results.
 GradGradGradGradGradGradGradGradGradGradGradGradGradGradGradGradGradGrad

 Leave Link  103 at Fri Feb 14 12:14:09 2025, MaxMem=  8053063680 cpu:               0.2 elap:               0.1
 (Enter /opt/apps/g16_avx2/tar//g16/l202.exe)
                          Input orientation:                          
 ---------------------------------------------------------------------
 Center     Atomic      Atomic             Coordinates (Angstroms)
 Number     Number       Type             X           Y           Z
 ---------------------------------------------------------------------
      1          6           0        0.609647    0.738545    0.148517
      2          8           0       -0.047962   -0.263791    0.019227
      3          7           0        1.938218    0.795184    0.311146
      4          1           0        2.353611    1.669365    0.001988
      5          6           0       -0.070343    2.094965   -0.055401
      6          6           0        2.725263   -0.400335    0.034265
      7          1           0        2.738192   -0.634538   -1.035982
      8          1           0        3.745038   -0.235178    0.385910
      9          1           0        2.293013   -1.242158    0.575258
     10          9           0       -0.078088    2.375640   -1.383234
     11          1           0       -1.103524    2.068588    0.305897
     12          9           0        0.592429    3.104592    0.561245
 ---------------------------------------------------------------------
[...]
    D2        0.01361   0.00001   0.00000   0.00047   0.00047   0.01408
    D3       -0.05484   0.00000   0.00000  -0.00026  -0.00026  -0.05510
    D4        3.14117   0.00000   0.00000   0.00024   0.00024   3.14141
    D5       -1.10727  -0.00001   0.00000   0.00093   0.00093  -1.10633
    D6        0.97811  -0.00001   0.00000   0.00087   0.00087   0.97898
    D7        3.10847   0.00001   0.00000   0.00109   0.00109   3.10956
    D8        2.04718  -0.00000   0.00000   0.00116   0.00116   2.04834
    D9       -2.15063  -0.00001   0.00000   0.00109   0.00109  -2.14954
   D10       -0.02027   0.00002   0.00000   0.00131   0.00131  -0.01896
   D11        1.52398  -0.00001   0.00000  -0.01702  -0.01702   1.50696
   D12       -2.65638  -0.00000   0.00000  -0.01721  -0.01721  -2.67358
   D13       -0.56971  -0.00000   0.00000  -0.01714  -0.01714  -0.58685
   D14       -1.56276  -0.00000   0.00000  -0.01652  -0.01652  -1.57928
   D15        0.54007  -0.00000   0.00000  -0.01671  -0.01671   0.52336
   D16        2.62673   0.00000   0.00000  -0.01663  -0.01663   2.61010
         Item               Value     Threshold  Converged?
 Maximum Force            0.000081     0.000450     YES
 RMS     Force            0.000018     0.000300     YES
 Maximum Displacement     0.022522     0.001800     NO 
 RMS     Displacement     0.007195     0.001200     NO 
 Predicted change in Energy=-1.534244D-07
                           ----------------------------
                           ! Non-Optimized Parameters !
                           ! (Angstroms and Degrees)  !
 --------------------------                            --------------------------
 ! Name  Definition              Value          Derivative Info.                !
 --------------------------------------------------------------------------------
 ! R1    R(1,2)                  1.2208         -DE/DX =    0.0001              !
 ! R2    R(1,3)                  1.3303         -DE/DX =    0.0                 !
 ! R3    R(1,5)                  1.5316         -DE/DX =    0.0                 !
 ! R4    R(3,4)                  1.0068         -DE/DX =    0.0                 !
 ! R5    R(3,6)                  1.444          -DE/DX =    0.0                 !
 ! R6    R(5,10)                 1.3555         -DE/DX =    0.0                 !
 ! R7    R(5,11)                 1.0927         -DE/DX =    0.0                 !
 ! R8    R(5,12)                 1.3586         -DE/DX =    0.0                 !
 ! R9    R(6,7)                  1.093          -DE/DX =    0.0                 !
 ! R10   R(6,8)                  1.0885         -DE/DX =    0.0                 !
 ! R11   R(6,9)                  1.0893         -DE/DX =    0.0                 !
 ! A1    A(2,1,3)              125.9779         -DE/DX =    0.0                 !
 ! A2    A(2,1,5)              118.0384         -DE/DX =    0.0                 !
 ! A3    A(3,1,5)              115.9788         -DE/DX =    0.0                 !
 ! A4    A(1,3,4)              118.3529         -DE/DX =    0.0                 !
 ! A5    A(1,3,6)              122.4022         -DE/DX =    0.0                 !
 ! A6    A(4,3,6)              119.1713         -DE/DX =    0.0                 !
 ! A7    A(1,5,10)             108.5373         -DE/DX =    0.0                 !
 ! A8    A(1,5,11)             110.8689         -DE/DX =    0.0                 !
 ! A9    A(1,5,12)             112.3826         -DE/DX =    0.0                 !
 ! A10   A(10,5,11)            108.8272         -DE/DX =    0.0                 !
 ! A11   A(10,5,12)            107.2505         -DE/DX =    0.0                 !
 ! A12   A(11,5,12)            108.8528         -DE/DX =    0.0                 !
 ! A13   A(3,6,7)              111.3622         -DE/DX =    0.0                 !
 ! A14   A(3,6,8)              109.1855         -DE/DX =    0.0                 !
 ! A15   A(3,6,9)              109.2535         -DE/DX =    0.0                 !
 ! A16   A(7,6,8)              109.0472         -DE/DX =    0.0                 !
 ! A17   A(7,6,9)              108.605          -DE/DX =    0.0                 !
 ! A18   A(8,6,9)              109.3614         -DE/DX =    0.0                 !
 ! D1    D(2,1,3,4)            177.66           -DE/DX =    0.0                 !
 ! D2    D(2,1,3,6)              0.8067         -DE/DX =    0.0                 !
 ! D3    D(5,1,3,4)             -3.1573         -DE/DX =    0.0                 !
 ! D4    D(5,1,3,6)            179.9894         -DE/DX =    0.0                 !
 ! D5    D(2,1,5,10)           -63.3881         -DE/DX =    0.0                 !
 ! D6    D(2,1,5,11)            56.0913         -DE/DX =    0.0                 !
 ! D7    D(2,1,5,12)           178.1645         -DE/DX =    0.0                 !
 ! D8    D(3,1,5,10)           117.3612         -DE/DX =    0.0                 !
 ! D9    D(3,1,5,11)          -123.1594         -DE/DX =    0.0                 !
 ! D10   D(3,1,5,12)            -1.0862         -DE/DX =    0.0                 !
 ! D11   D(1,3,6,7)             86.3423         -DE/DX =    0.0                 !
 ! D12   D(1,3,6,8)           -153.1851         -DE/DX =    0.0                 !
 ! D13   D(1,3,6,9)            -33.624          -DE/DX =    0.0                 !
 ! D14   D(4,3,6,7)            -90.4862         -DE/DX =    0.0                 !
 ! D15   D(4,3,6,8)             29.9863         -DE/DX =    0.0                 !
 ! D16   D(4,3,6,9)            149.5475         -DE/DX =    0.0                 !
 --------------------------------------------------------------------------------
 GradGradGradGradGradGradGradGradGradGradGradGradGradGradGradGradGradGrad

 Leave Link  103 at Fri Feb 14 12:17:39 2025, MaxMem=  8053063680 cpu:               0.2 elap:               0.1
 (Enter /opt/apps/g16_avx2/tar//g16/l9999.exe)

 ----------------------------------------------------------------------

 Electric dipole moment (input orientation):
 (Debye = 10**-18 statcoulomb cm , SI units = C m)
                  (au)            (Debye)         (10**-30 SI)
   Tot        0.184842D+01      0.469821D+01      0.156715D+02
   x          0.160011D+01      0.406708D+01      0.135663D+02
   y          0.417128D+00      0.106023D+01      0.353656D+01
   z          0.826009D+00      0.209950D+01      0.700319D+01

 Dipole polarizability, Alpha (input orientation).
 (esu units = cm**3 , SI units = C**2 m**2 J**-1)
 Alpha(0;0):
               (au)            (10**-24 esu)      (10**-40 SI)
   iso        0.589828D+02      0.874036D+01      0.972496D+01
   aniso      0.213286D+02      0.316057D+01      0.351661D+01
   xx         0.704709D+02      0.104427D+02      0.116191D+02
   yx        -0.105904D+01     -0.156933D+00     -0.174612D+00
   yy         0.596195D+02      0.883469D+01      0.982992D+01
   zx         0.302699D+01      0.448554D+00      0.499083D+00
   zy         0.128774D+01      0.190823D+00      0.212319D+00
   zz         0.468582D+02      0.694367D+01      0.772587D+01

 ----------------------------------------------------------------------

 Dipole orientation:
     6          0.51892897          1.25393425          1.27039577
     8          0.44325368         -0.31362039         -0.42045570
     7          1.42242304          0.88613150          3.58744236
     1          1.43965212          2.35721546          4.79380412
     6         -0.54369112          3.89130305          0.72854400
     6          2.48500260         -1.49799492          4.38315033
     1          4.49815282         -1.61102975          3.93565311
     1          2.23621333         -1.70555014          6.41458702
     1          1.50951752         -3.03068759          3.41587628
     9          0.86126015          4.97113920         -1.12109619
     1         -2.50579703          3.77748315          0.09499946
     9         -0.42159367          5.43433682          2.77688523

 Electric dipole moment (dipole orientation):
 (Debye = 10**-18 statcoulomb cm , SI units = C m)
                  (au)            (Debye)         (10**-30 SI)
   Tot        0.184842D+01      0.469821D+01      0.156715D+02
   x          0.000000D+00      0.000000D+00      0.000000D+00
   y          0.000000D+00      0.000000D+00      0.000000D+00
   z          0.184842D+01      0.469821D+01      0.156715D+02

 Dipole polarizability, Alpha (dipole orientation).
 (esu units = cm**3 , SI units = C**2 m**2 J**-1)
 Alpha(0;0):
               (au)            (10**-24 esu)      (10**-40 SI)
   iso        0.589828D+02      0.874036D+01      0.972496D+01
   aniso      0.213286D+02      0.316057D+01      0.351661D+01
   xx         0.504907D+02      0.748195D+01      0.832479D+01
   yx        -0.472289D+01     -0.699861D+00     -0.778700D+00
   yy         0.590670D+02      0.875283D+01      0.973884D+01
   zx         0.752809D+01      0.111555D+01      0.124121D+01
   zy        -0.111799D+01     -0.165669D+00     -0.184332D+00
   zz         0.673908D+02      0.998629D+01      0.111112D+02

 ----------------------------------------------------------------------
 1\1\GINC-RIPPER-24-13\Freq\RPBE1PBE\def2TZVP\C3H5F2N1O1\HILLEL\14-Feb-
 2025\0\\#P Geom=AllCheck Guess=TCheck SCRF=Check GenChk RPBE1PBE/def2T
 ZVP Freq\\x=chf2 methylacetamide product\\0,1\C,0.6247449083,0.7548299
 815,-0.0870420541\O,-0.0571251395,-0.2419989943,-0.2650259102\N,1.9429
 237961,0.7791919325,0.0909215734\H,2.3948364359,1.6730867003,0.1926296
 93\C,-0.0829822727,2.1125583182,-0.0433491519\C,2.7488362221,-0.418925
 1773,0.0770362078\H,3.0654737534,-0.673910074,-0.9374933807\H,3.630782
 2161,-0.2645272165,0.6961743966\H,2.1663976293,-1.2472575344,0.4781920
 324\F,-0.6490339991,2.3426091962,-1.2532904751\H,-0.8656055722,2.11897
 92686,0.7192485612\F,0.7762449123,3.1362420692,0.2008347975\\Version=E
 S64L-G16RevB.01\State=1-A\HF=-446.7319738\RMSD=5.241e-09\RMSF=3.203e-0
 5\ZeroPoint=0.0880202\Thermal=0.095574\Dipole=1.6001143,0.4171277,0.82
 60088\DipoleDeriv=2.1058233,0.3632428,0.2435035,0.7055793,1.0804018,0.
 1866174,0.3431297,0.0614249,0.2856674,-1.2371629,-0.1978481,-0.1011887
 ,-0.7357278,-1.158612,-0.1475995,-0.1563866,-0.0806336,-0.5240994,-1.4
 45028,-0.0669038,-0.1066579,0.1060242,-0.5619944,-0.0226008,-0.2106535
 ,-0.0325619,-0.4819966,0.2402294,0.0486166,-0.0136285,0.0729382,0.2583
 167,0.0071483,0.0141021,0.0182543,0.3588741,1.2040659,0.2834636,0.3506
 885,0.1256791,1.3127645,0.0061195,0.4228839,-0.0826341,1.3427766,0.318
 242,-0.1820281,-0.0437602,-0.3254837,0.3995863,0.026427,0.0479434,0.03
 23905,0.2807481,0.0189286,0.0589239,0.025131,0.1227927,0.0296354,0.000
 6927,0.0890943,-0.0684084,-0.1057544,-0.0466246,0.0320926,-0.0790867,0
 .0050853,0.0545955,-0.0531081,-0.1156565,-0.0262181,0.0415973,0.027482
 3,-0.0827751,0.0683202,0.0277784,-0.0120031,0.0398813,0.0283851,0.0548
 825,0.0777232,-0.512112,0.0846673,-0.2550032,0.1481936,-0.4334486,0.15
 50731,-0.4116704,0.1550867,-0.9042394,-0.0411153,-0.0019893,0.065589,0
 .0390137,-0.0084901,-0.0157171,0.0268282,0.0348228,-0.0155257,-0.63272
 85,-0.3394625,-0.1539069,-0.2918729,-0.9607519,-0.1829338,-0.0779997,-
 0.0664057,-0.3557711\Polar=70.4709003,-1.0590382,59.6194552,3.0269895,
 1.2877351,46.858184\Quadrupole=3.8189054,-3.7313242,-0.0875812,-4.0478
 206,-1.3896036,0.3308262\PG=C01 [X(C3H5F2N1O1)]\NImag=0\\0.80262361,0.
 15049211,0.80417169,0.08778524,0.07036569,0.24313760,-0.25435142,-0.24
 384938,-0.04371425,0.31090926,-0.23357101,-0.49419528,-0.06852117,0.31
 320823,0.54496670,-0.04336062,-0.06977763,-0.08870214,0.06592342,0.087
 14272,0.05189262,-0.38039573,0.03362515,-0.03819527,-0.07101950,-0.058
 77445,-0.01808268,0.78557733,0.01519061,-0.14262019,-0.00488045,-0.067
 35484,-0.00521394,-0.01068729,0.06957426,0.78175464,-0.03525548,0.0006
 5558,-0.05642799,-0.01952298,-0.01250361,0.01667658,0.08211019,0.06164
 150,0.08965208,-0.00891458,-0.03604403,-0.00193826,-0.00691325,0.00238
 313,-0.00179632,-0.14745158,-0.15261762,-0.02510520,0.15412620,-0.0076
 8067,0.00253225,-0.00048795,0.00614295,0.00454281,0.00068364,-0.155553
 77,-0.37437574,-0.04031631,0.16276546,0.38554916,-0.00221804,-0.005112
 28,-0.00856984,-0.00187331,0.00065357,0.00860713,-0.02440527,-0.039720
 25,-0.01050346,0.02662239,0.04077407,0.01649353,-0.11674538,0.04893676
 ,0.02057805,0.01107473,-0.02641284,-0.00607178,-0.01965366,0.03236938,
 -0.00091079,-0.00508711,0.00211755,0.00056571,0.55946770,0.07362473,-0
 .14532373,-0.00741236,-0.00837727,-0.03341531,-0.00574532,0.00289037,0
 .00283175,-0.00162667,-0.00200387,0.00353118,0.00011760,-0.00729245,0.
 50245385,0.01609192,0.00530059,-0.08291670,-0.00346403,-0.01145141,0.0
 1259121,-0.00097131,-0.00214731,0.00950584,-0.00161411,0.00086648,-0.0
 0191495,-0.09366064,-0.02460532,0.52688758,-0.03116847,0.03386849,-0.0
 0186703,0.00640146,0.00286426,0.00105911,-0.14396245,0.06301957,-0.002
 09274,0.01264925,-0.01061756,0.00127276,-0.00391699,-0.00344475,-0.000
 80256,0.58284555,0.02303170,0.00744958,0.00300042,-0.00804406,-0.00526
 668,-0.00076991,0.05482285,-0.20427973,-0.00874058,0.01928492,-0.01529
 395,0.00174377,-0.00274242,-0.00131051,-0.00019125,0.05339257,0.527104
 91,-0.00785971,0.00066964,-0.00173556,0.00072766,0.00499320,-0.0038877
 0,0.00108743,-0.00504937,-0.06095905,0.00166180,-0.00082008,-0.0031728
 2,-0.00429169,0.00058265,0.00818760,0.00901665,0.00232808,0.57097575,0
 .00398760,0.00369960,0.00238839,-0.00045504,-0.00223176,-0.00030353,-0
 .01253656,0.01165005,0.01672298,-0.00055555,-0.00004265,0.00041988,0.0
 0056782,-0.00076502,-0.00091426,-0.06658192,0.01266421,0.06510374,0.07
 162986,-0.00645054,-0.00324108,-0.00217018,0.00268046,0.00274013,-0.00
 020891,0.01963628,-0.01589811,-0.02598922,0.00101821,-0.00044767,-0.00
 115058,-0.00077983,0.00079669,0.00116281,0.01185542,-0.05591767,-0.047
 35005,-0.02387477,0.06732717,-0.00213370,0.00038114,0.00053255,0.00086
 178,0.00004411,-0.00010043,0.00163235,-0.00390019,0.00929002,0.0005447
 5,0.00014395,-0.00035531,0.00016293,0.00000210,-0.00066363,0.06766147,
 -0.05033230,-0.28365138,-0.07571136,0.05796879,0.30042601,0.00148765,0
 .00313426,-0.00090974,-0.00058023,0.00017705,-0.00019497,-0.01965685,-
 0.00038006,-0.00863882,0.00066323,-0.00019901,0.00046451,-0.00060641,-
 0.00094226,0.00048425,-0.22533025,-0.03369723,-0.12650914,0.00879993,0
 .00087703,0.00542720,0.24627016,-0.00217198,-0.00757899,0.00081411,-0.
 00034379,0.00300536,0.00030419,0.03524265,-0.00050152,0.01831188,-0.00
 023189,0.00142250,0.00013907,0.00121024,0.00107525,-0.00145236,-0.0431
 4627,-0.05632249,-0.02966087,-0.00522131,-0.00078488,-0.00207880,0.031
 51929,0.06191312,0.00211683,0.00060248,0.00025718,0.00015572,-0.000906
 34,-0.00003443,0.00243039,0.00083481,0.00203059,-0.00025232,0.00038794
 ,0.00054247,0.00018677,-0.00012729,0.00022192,-0.13086893,-0.02491180,
 -0.13985158,-0.02413452,-0.00530081,-0.01539778,0.13944733,0.02865208,
 0.14419208,0.00164204,0.00218518,-0.00042853,-0.00137845,-0.00108746,-
 0.00018587,0.01208205,0.01970626,-0.00879059,-0.00211712,0.00254769,-0
 .00063512,0.00029963,-0.00004627,0.00109229,-0.13274181,-0.11823046,0.
 05923984,-0.00428154,-0.00567261,0.00160072,-0.01093134,-0.01682996,0.
 01096882,0.13763035,-0.00558647,-0.00202383,-0.00123640,0.00072037,0.0
 0311441,0.00008781,-0.01024724,-0.03150745,0.00793864,0.00348556,-0.00
 175731,0.00254452,-0.00043521,-0.00032271,-0.00043218,-0.10844483,-0.1
 9918290,0.07551716,0.00335681,0.00644600,-0.00223406,-0.00124234,-0.00
 150252,0.00071181,0.11775055,0.22674412,0.00130585,0.00189633,0.001369
 56,-0.00025559,-0.00165250,-0.00079719,-0.00329057,-0.00223247,0.00110
 453,0.00035724,-0.00072034,-0.00026505,0.00006479,-0.00019112,0.000019
 66,0.05696248,0.07875297,-0.08616046,0.01679406,0.02258321,-0.01006028
 ,-0.00918726,-0.01544753,0.00811981,-0.06275329,-0.08295905,0.08669673
 ,-0.00954916,0.00324325,-0.03186537,0.00190608,0.00274362,0.00377276,-
 0.00150338,0.00392359,0.00100940,0.00086710,-0.00019689,-0.00064634,-0
 .08938998,0.02722241,-0.06550798,-0.00045231,-0.00077883,0.00205962,-0
 .00051800,0.00060891,-0.00014209,-0.00017177,0.00003328,-0.00000707,0.
 00015782,0.00003472,-0.00003290,0.11281386,0.01352423,-0.00315686,0.03
 497832,0.00238750,-0.00026655,-0.00153275,0.00230139,-0.00443961,-0.00
 048852,-0.00008202,-0.00061873,0.00052406,0.01610785,-0.08249932,0.048
 27768,0.00069426,0.00103851,-0.00185380,0.00054421,-0.00059236,0.00013
 754,0.00027086,-0.00010100,-0.00001770,-0.00016359,0.00011446,0.000023
 71,-0.01727965,0.07643642,-0.01424963,-0.00084541,-0.01598658,0.001680
 63,0.00373419,0.00356231,-0.00251832,0.00586596,-0.00013569,0.00116662
 ,-0.00019337,-0.00018467,-0.04730253,0.05628033,-0.23541408,-0.0004987
 3,-0.00100638,0.00055560,-0.00040841,0.00045849,-0.00005435,-0.0003519
 4,0.00034971,-0.00001381,0.00001512,0.00008850,-0.00003020,0.12368804,
 -0.04913327,0.31318380,-0.00883768,-0.00160161,0.01123627,0.00204524,0
 .00134825,-0.00134891,-0.00033794,0.00186973,-0.00018896,0.00035905,-0
 .00019354,0.00023718,-0.19265932,0.01244014,0.14110847,-0.00017778,-0.
 00023840,-0.00057617,0.00001521,-0.00000997,0.00004542,-0.00007784,0.0
 0024037,-0.00002834,-0.00007982,0.00008000,-0.00001639,0.01414707,0.00
 180128,-0.02101267,0.20726167,0.02106014,0.00415588,-0.01745306,-0.001
 92769,0.00052672,0.00230017,0.00134771,-0.00449374,0.00028865,0.000040
 27,-0.00044830,-0.00052566,0.02067186,-0.05746283,-0.01538171,0.000718
 72,0.00066451,0.00126583,-0.00003798,0.00003776,-0.00007435,0.00025538
 ,-0.00047401,0.00003301,0.00003692,-0.00007708,0.00001340,-0.00426628,
 0.00709498,0.01030697,-0.00177888,0.05999584,0.00267972,0.00002612,0.0
 0502958,-0.00042610,0.00059748,-0.00033083,-0.00000961,-0.00061946,-0.
 00052820,-0.00008431,0.00000472,0.00017173,0.13287591,-0.00374133,-0.1
 7164309,0.00008495,0.00012597,-0.00032909,0.00003831,-0.00004141,0.000
 00798,-0.00002263,0.00004074,-0.00004181,-0.00004298,0.00001563,-0.000
 00678,0.01080335,0.00321111,-0.04207747,-0.13896713,0.00365954,0.19908
 154,0.00022154,0.00231021,-0.00306950,0.00236112,-0.00064703,0.0005894
 0,-0.00114174,0.00304907,0.00066298,0.00237436,0.00091045,0.00019565,-
 0.14335105,-0.09330576,0.00815796,0.00243573,0.00053516,0.00033997,-0.
 00007183,0.00011140,0.00005053,0.00013371,-0.00030063,-0.00001466,-0.0
 0028182,0.00052810,0.00005157,-0.02830732,-0.02010632,-0.04020817,-0.0
 2165786,-0.03612016,-0.00692948,0.18728515,-0.04146285,-0.02016942,-0.
 00699699,0.00475752,-0.02053838,-0.00179672,0.00513480,-0.00125636,0.0
 0082866,0.00200189,-0.00463621,0.00001211,-0.08375088,-0.19035430,0.00
 005399,-0.00075990,0.00131642,-0.00062239,0.00025861,-0.00046598,-0.00
 005791,0.00022704,-0.00015084,0.00004182,-0.00019626,-0.00004519,-0.00
 006661,-0.01528813,0.00699006,-0.02590572,-0.01395736,-0.00951973,-0.0
 0327911,0.14303552,0.23882993,-0.00490238,-0.00416225,0.00401231,-0.00
 009294,-0.00213024,0.00052287,0.00021267,0.00089451,0.00029476,0.00043
 773,-0.00032273,-0.00084877,-0.00219673,-0.01353326,-0.06486135,0.0000
 7258,0.00000101,0.00002868,0.00000470,0.00003786,0.00002660,-0.0000087
 9,0.00002778,-0.00002463,-0.00008041,-0.00004238,0.00000968,-0.0431314
 1,-0.03412638,-0.02340487,0.00951122,0.01556721,0.01066645,0.04017375,
 0.03778887,0.07357825\\-0.00006359,-0.00009004,0.00001582,0.00004264,0
 .00007266,-0.00000233,0.00000887,0.00003314,-0.00000616,-0.00000596,0.
 00000421,-0.00000200,-0.00001703,0.00006236,-0.00006685,0.00002576,-0.
 00005823,-0.00000856,-0.00000037,0.00000495,-0.00000664,-0.00000371,-0
 .00000233,-0.00000069,-0.00000959,-0.00000116,-0.00000905,0.00000918,-
 0.00000531,0.00002235,-0.00000105,-0.00000630,0.00003285,0.00001485,-0
 .00001394,0.00003126\\\@


 ALL MEN WHO EXPLORE
 DEPLORE
 THAT FRUSTRATING HURDLE
 THE GIRDLE.

         -- COLIN FLETCHER
 Job cpu time:       0 days  0 hours 25 minutes  6.0 seconds.
 Elapsed time:       0 days  0 hours  1 minutes 35.7 seconds.
 File lengths (MBytes):  RWF=     99 Int=      0 D2E=      0 Chk=     10 Scr=      1
 Normal termination of Gaussian 16 at Fri Feb 14 12:17:39 2025.
