 Entering Gaussian System, Link 0=g16
 Input=input.com
 Output=input.log
 Initial command:
 /share/apps/g16.b01_avx2/g16/l1.exe "/scratch/Gau-518086.inp" -scrdir="/scratch/"
 Entering Link 1 = /share/apps/g16.b01_avx2/g16/l1.exe PID=    518088.
  
 Copyright (c) 1988-2017, Gaussian, Inc.  All Rights Reserved.
  
 This is part of the Gaussian(R) 16 program.  It is based on
 the Gaussian(R) 09 system (copyright 2009, Gaussian, Inc.),
 the Gaussian(R) 03 system (copyright 2003, Gaussian, Inc.),
 the Gaussian(R) 98 system (copyright 1998, Gaussian, Inc.),
 the Gaussian(R) 94 system (copyright 1995, Gaussian, Inc.),
 the Gaussian 92(TM) system (copyright 1992, Gaussian, Inc.),
 the Gaussian 90(TM) system (copyright 1990, Gaussian, Inc.),
 the Gaussian 88(TM) system (copyright 1988, Gaussian, Inc.),
 the Gaussian 86(TM) system (copyright 1986, Carnegie Mellon
 University), and the Gaussian 82(TM) system (copyright 1983,
 Carnegie Mellon University). Gaussian is a federally registered
 trademark of Gaussian, Inc.
  
 This software contains proprietary and confidential information,
 including trade secrets, belonging to Gaussian, Inc.
  
 This software is provided under written license and may be
 used, copied, transmitted, or stored only in accord with that
 written license.
  
 The following legend is applicable only to US Government
 contracts under FAR:
  
                    RESTRICTED RIGHTS LEGEND
  
 Use, reproduction and disclosure by the US Government is
 subject to restrictions as set forth in subparagraphs (a)
 and (c) of the Commercial Computer Software - Restricted
 Rights clause in FAR 52.227-19.
  
 Gaussian, Inc.
 340 Quinnipiac St., Bldg. 40, Wallingford CT 06492
  
  
 ---------------------------------------------------------------
 Warning -- This program may not be used in any manner that
 competes with the business of Gaussian, Inc. or will provide
 assistance to any competitor of Gaussian, Inc.  The licensee
 of this program is prohibited from giving any competitor of
 Gaussian, Inc. access to this program.  By using this program,
 the user acknowledges that Gaussian, Inc. is engaged in the
 business of creating and licensing software in the field of
 computational chemistry and represents and warrants to the
 licensee that it is not a competitor of Gaussian, Inc. and that
 it will not use this program in any manner prohibited above.
 ---------------------------------------------------------------
  

 Cite this work as:
 Gaussian 16, Revision B.01,
 M. J. Frisch, G. W. Trucks, H. B. Schlegel, G. E. Scuseria, 
 M. A. Robb, J. R. Cheeseman, G. Scalmani, V. Barone, 
 G. A. Petersson, H. Nakatsuji, X. Li, M. Caricato, A. V. Marenich, 
 J. Bloino, B. G. Janesko, R. Gomperts, B. Mennucci, H. P. Hratchian, 
 J. V. Ortiz, A. F. Izmaylov, J. L. Sonnenberg, D. Williams-Young, 
 F. Ding, F. Lipparini, F. Egidi, J. Goings, B. Peng, A. Petrone, 
 T. Henderson, D. Ranasinghe, V. G. Zakrzewski, J. Gao, N. Rega, 
 G. Zheng, W. Liang, M. Hada, M. Ehara, K. Toyota, R. Fukuda, 
 J. Hasegawa, M. Ishida, T. Nakajima, Y. Honda, O. Kitao, H. Nakai, 
 T. Vreven, K. Throssell, J. A. Montgomery, Jr., J. E. Peralta, 
 F. Ogliaro, M. J. Bearpark, J. J. Heyd, E. N. Brothers, K. N. Kudin, 
 V. N. Staroverov, T. A. Keith, R. Kobayashi, J. Normand, 
 K. Raghavachari, A. P. Rendell, J. C. Burant, S. S. Iyengar, 
 J. Tomasi, M. Cossi, J. M. Millam, M. Klene, C. Adamo, R. Cammi, 
 J. W. Ochterski, R. L. Martin, K. Morokuma, O. Farkas, 
 J. B. Foresman, and D. J. Fox, Gaussian, Inc., Wallingford CT, 2016.
 
 ******************************************
 Gaussian 16:  ES64L-G16RevB.01 20-Dec-2017
                19-Aug-2024 
 ******************************************
 %nproc=24
 Will use up to   24 processors via shared memory.
 %mem=64GB
 ----------------------------------------------------------------------
 #P PBE1PBE/def2TZVP opt freq EmpiricalDispersion=GD3 Int=(grid=99590) 
 scrf=(iefpcm, solvent=water)
 ----------------------------------------------------------------------
 1/18=20,19=15,26=6,38=1/1,3;
 2/9=110,12=2,17=6,18=5,40=1/2;
 3/5=44,7=101,11=2,25=1,30=1,70=2201,71=1,72=1,74=-13,75=99590,124=31/1,2,3;
 4//1;
 5/5=2,38=5,53=1/2;
 6/7=2,8=2,9=2,10=2,28=1/1;
 7//1,2,3,16;
 1/18=20,19=15,26=6/3(2);
 2/9=110/2;
 99//99;
 2/9=110/2;
 3/5=44,7=101,11=2,25=1,30=1,70=2205,71=1,72=1,74=-13,75=99590,124=31/1,2,3;
 4/5=5,16=3,69=1/1;
 5/5=2,38=5,53=1/2;
 7//1,2,3,16;
 1/18=20,19=15,26=6/3(-5);
 2/9=110/2;
 6/7=2,8=2,9=2,10=2,19=2,28=1/1;
 99/9=1/99;
 Leave Link    1 at Mon Aug 19 18:17:28 2024, MaxMem=  8589934592 cpu:               0.9 elap:               0.0
 (Enter /share/apps/g16.b01_avx2/g16/l101.exe)
 ----------------------
 pfp_ester-cf3 reactant
 ----------------------
 Symbolic Z-matrix:
 Charge =  0 Multiplicity = 1
 O                     0.73523  -0.16783  -3.08985 
 C                     1.19232   0.83369  -2.48026 
 C                     2.46011   1.5379   -2.99833 
 O                     0.53451   1.31786  -1.30648 
 C                    -0.53677   0.7228   -0.86871 
 C                    -0.42797  -0.32773   0.05242 
 C                    -1.79925   1.13248  -1.3184 
 C                    -1.58166  -0.96857   0.52387 
 C                    -2.95293   0.49164  -0.84695 
 C                    -2.84414  -0.55888   0.07418 
 F                     0.78821  -0.72239   0.48561 
 F                    -1.90406   2.14448  -2.20574 
 F                    -1.47685  -1.98056   1.41121 
 F                    -4.16911   0.88631  -1.28015 
 F                    -3.95551  -1.17621   0.52834 
 F                     3.54962   0.97799  -2.4309 
 F                     2.40945   2.84848  -2.67847 
 F                     2.53263   1.40457  -4.33977 
 
 ITRead=  0  0  0  0  0  0  0  0  0  0  0  0  0  0  0  0  0  0
 MicOpt= -1 -1 -1 -1 -1 -1 -1 -1 -1 -1 -1 -1 -1 -1 -1 -1 -1 -1
 NAtoms=     18 NQM=       18 NQMF=       0 NMMI=      0 NMMIF=      0
                NMic=       0 NMicF=      0.
                    Isotopes and Nuclear Properties:
 (Nuclear quadrupole moments (NQMom) in fm**2, nuclear magnetic moments (NMagM)
  in nuclear magnetons)

  Atom         1           2           3           4           5           6           7           8           9          10
 IAtWgt=          16          12          12          16          12          12          12          12          12          12
 AtmWgt=  15.9949146  12.0000000  12.0000000  15.9949146  12.0000000  12.0000000  12.0000000  12.0000000  12.0000000  12.0000000
 NucSpn=           0           0           0           0           0           0           0           0           0           0
 AtZEff=  -0.0000000  -0.0000000  -0.0000000  -0.0000000  -0.0000000  -0.0000000  -0.0000000  -0.0000000  -0.0000000  -0.0000000
 NQMom=    0.0000000   0.0000000   0.0000000   0.0000000   0.0000000   0.0000000   0.0000000   0.0000000   0.0000000   0.0000000
 NMagM=    0.0000000   0.0000000   0.0000000   0.0000000   0.0000000   0.0000000   0.0000000   0.0000000   0.0000000   0.0000000
 AtZNuc=   8.0000000   6.0000000   6.0000000   8.0000000   6.0000000   6.0000000   6.0000000   6.0000000   6.0000000   6.0000000

  Atom        11          12          13          14          15          16          17          18
 IAtWgt=          19          19          19          19          19          19          19          19
 AtmWgt=  18.9984032  18.9984032  18.9984032  18.9984032  18.9984032  18.9984032  18.9984032  18.9984032
 NucSpn=           1           1           1           1           1           1           1           1
 AtZEff=  -0.0000000  -0.0000000  -0.0000000  -0.0000000  -0.0000000  -0.0000000  -0.0000000  -0.0000000
 NQMom=    0.0000000   0.0000000   0.0000000   0.0000000   0.0000000   0.0000000   0.0000000   0.0000000
 NMagM=    2.6288670   2.6288670   2.6288670   2.6288670   2.6288670   2.6288670   2.6288670   2.6288670
 AtZNuc=   9.0000000   9.0000000   9.0000000   9.0000000   9.0000000   9.0000000   9.0000000   9.0000000
 Leave Link  101 at Mon Aug 19 18:17:28 2024, MaxMem=  8589934592 cpu:               7.2 elap:               0.3
 (Enter /share/apps/g16.b01_avx2/g16/l103.exe)

 GradGradGradGradGradGradGradGradGradGradGradGradGradGradGradGradGradGrad
 Berny optimization.
 Initialization pass.
                           ----------------------------
                           !    Initial Parameters    !
                           ! (Angstroms and Degrees)  !
 --------------------------                            --------------------------
 ! Name  Definition              Value          Derivative Info.                !
 --------------------------------------------------------------------------------
 ! R1    R(1,2)                  1.2584         estimate D2E/DX2                !
 ! R2    R(2,3)                  1.54           estimate D2E/DX2                !
 ! R3    R(2,4)                  1.43           estimate D2E/DX2                !
 ! R4    R(3,16)                 1.35           estimate D2E/DX2                !
 ! R5    R(3,17)                 1.35           estimate D2E/DX2                !
 ! R6    R(3,18)                 1.35           estimate D2E/DX2                !
 ! R7    R(4,5)                  1.3013         estimate D2E/DX2                !
 ! R8    R(5,6)                  1.4014         estimate D2E/DX2                !
 ! R9    R(5,7)                  1.4014         estimate D2E/DX2                !
 ! R10   R(6,8)                  1.4014         estimate D2E/DX2                !
 ! R11   R(6,11)                 1.35           estimate D2E/DX2                !
 ! R12   R(7,9)                  1.4014         estimate D2E/DX2                !
 ! R13   R(7,12)                 1.35           estimate D2E/DX2                !
 ! R14   R(8,10)                 1.4014         estimate D2E/DX2                !
 ! R15   R(8,13)                 1.35           estimate D2E/DX2                !
 ! R16   R(9,10)                 1.4014         estimate D2E/DX2                !
 ! R17   R(9,14)                 1.35           estimate D2E/DX2                !
 ! R18   R(10,15)                1.35           estimate D2E/DX2                !
 ! A1    A(1,2,3)              120.0            estimate D2E/DX2                !
 ! A2    A(1,2,4)              120.0            estimate D2E/DX2                !
 ! A3    A(3,2,4)              120.0            estimate D2E/DX2                !
 ! A4    A(2,3,16)             109.4712         estimate D2E/DX2                !
 ! A5    A(2,3,17)             109.4712         estimate D2E/DX2                !
 ! A6    A(2,3,18)             109.4712         estimate D2E/DX2                !
 ! A7    A(16,3,17)            109.4712         estimate D2E/DX2                !
 ! A8    A(16,3,18)            109.4712         estimate D2E/DX2                !
 ! A9    A(17,3,18)            109.4712         estimate D2E/DX2                !
 ! A10   A(2,4,5)              120.0            estimate D2E/DX2                !
 ! A11   A(4,5,6)              120.0            estimate D2E/DX2                !
 ! A12   A(4,5,7)              120.0            estimate D2E/DX2                !
 ! A13   A(6,5,7)              120.0            estimate D2E/DX2                !
 ! A14   A(5,6,8)              120.0            estimate D2E/DX2                !
 ! A15   A(5,6,11)             120.0            estimate D2E/DX2                !
 ! A16   A(8,6,11)             120.0            estimate D2E/DX2                !
 ! A17   A(5,7,9)              120.0            estimate D2E/DX2                !
 ! A18   A(5,7,12)             120.0            estimate D2E/DX2                !
 ! A19   A(9,7,12)             120.0            estimate D2E/DX2                !
 ! A20   A(6,8,10)             120.0            estimate D2E/DX2                !
 ! A21   A(6,8,13)             120.0            estimate D2E/DX2                !
 ! A22   A(10,8,13)            120.0            estimate D2E/DX2                !
 ! A23   A(7,9,10)             120.0            estimate D2E/DX2                !
 ! A24   A(7,9,14)             120.0            estimate D2E/DX2                !
 ! A25   A(10,9,14)            120.0            estimate D2E/DX2                !
 ! A26   A(8,10,9)             120.0            estimate D2E/DX2                !
 ! A27   A(8,10,15)            120.0            estimate D2E/DX2                !
 ! A28   A(9,10,15)            120.0            estimate D2E/DX2                !
 ! D1    D(1,2,3,16)           -90.0            estimate D2E/DX2                !
 ! D2    D(1,2,3,17)           150.0            estimate D2E/DX2                !
 ! D3    D(1,2,3,18)            30.0            estimate D2E/DX2                !
 ! D4    D(4,2,3,16)            90.0            estimate D2E/DX2                !
 ! D5    D(4,2,3,17)           -30.0            estimate D2E/DX2                !
 ! D6    D(4,2,3,18)          -150.0            estimate D2E/DX2                !
 ! D7    D(1,2,4,5)              0.0001         estimate D2E/DX2                !
 ! D8    D(3,2,4,5)           -179.9999         estimate D2E/DX2                !
 ! D9    D(2,4,5,6)             90.0            estimate D2E/DX2                !
 ! D10   D(2,4,5,7)            -89.9999         estimate D2E/DX2                !
 ! D11   D(4,5,6,8)            179.9998         estimate D2E/DX2                !
 ! D12   D(4,5,6,11)            -0.0001         estimate D2E/DX2                !
 ! D13   D(7,5,6,8)             -0.0002         estimate D2E/DX2                !
 ! D14   D(7,5,6,11)           179.9998         estimate D2E/DX2                !
 ! D15   D(4,5,7,9)           -180.0            estimate D2E/DX2                !
 ! D16   D(4,5,7,12)            -0.0001         estimate D2E/DX2                !
 ! D17   D(6,5,7,9)              0.0001         estimate D2E/DX2                !
 ! D18   D(6,5,7,12)           180.0            estimate D2E/DX2                !
 ! D19   D(5,6,8,10)             0.0002         estimate D2E/DX2                !
 ! D20   D(5,6,8,13)          -179.9998         estimate D2E/DX2                !
 ! D21   D(11,6,8,10)         -179.9999         estimate D2E/DX2                !
 ! D22   D(11,6,8,13)            0.0002         estimate D2E/DX2                !
 ! D23   D(5,7,9,10)             0.0001         estimate D2E/DX2                !
 ! D24   D(5,7,9,14)           180.0            estimate D2E/DX2                !
 ! D25   D(12,7,9,10)         -179.9998         estimate D2E/DX2                !
 ! D26   D(12,7,9,14)            0.0001         estimate D2E/DX2                !
 ! D27   D(6,8,10,9)             0.0            estimate D2E/DX2                !
 ! D28   D(6,8,10,15)         -179.9999         estimate D2E/DX2                !
 ! D29   D(13,8,10,9)         -180.0            estimate D2E/DX2                !
 ! D30   D(13,8,10,15)           0.0001         estimate D2E/DX2                !
 ! D31   D(7,9,10,8)            -0.0002         estimate D2E/DX2                !
 ! D32   D(7,9,10,15)          179.9998         estimate D2E/DX2                !
 ! D33   D(14,9,10,8)          180.0            estimate D2E/DX2                !
 ! D34   D(14,9,10,15)          -0.0001         estimate D2E/DX2                !
 --------------------------------------------------------------------------------
 Trust Radius=3.00D-01 FncErr=5.00D-06 GrdErr=5.00D-06 EigMax=2.50D+02 EigMin=1.00D-04
 Number of steps in this run=     90 maximum allowed number of steps=    108.
 GradGradGradGradGradGradGradGradGradGradGradGradGradGradGradGradGradGrad

 Leave Link  103 at Mon Aug 19 18:17:28 2024, MaxMem=  8589934592 cpu:               0.2 elap:               0.0
 (Enter /share/apps/g16.b01_avx2/g16/l202.exe)
                          Input orientation:                          
 ---------------------------------------------------------------------
 Center     Atomic      Atomic             Coordinates (Angstroms)
 Number     Number       Type             X           Y           Z
 ---------------------------------------------------------------------
      1          8           0        0.735232   -0.167831   -3.089851
      2          6           0        1.192322    0.833687   -2.480260
      3          6           0        2.460109    1.537903   -2.998329
      4          8           0        0.534512    1.317860   -1.306479
      5          6           0       -0.536767    0.722795   -0.868710
      6          6           0       -0.427970   -0.327731    0.052420
      7          6           0       -1.799249    1.132482   -1.318397
      8          6           0       -1.581656   -0.968567    0.523866
      9          6           0       -2.952934    0.491645   -0.846953
     10          6           0       -2.844137   -0.558879    0.074180
     11          9           0        0.788207   -0.722394    0.485610
     12          9           0       -1.904056    2.144478   -2.205741
     13          9           0       -1.476849   -1.980560    1.411214
     14          9           0       -4.169111    0.886306   -1.280145
     15          9           0       -3.955508   -1.176210    0.528336
     16          9           0        3.549617    0.977992   -2.430904
     17          9           0        2.409453    2.848484   -2.678466
     18          9           0        2.532628    1.404566   -4.339770
 ---------------------------------------------------------------------
                    Distance matrix (angstroms):
                    1          2          3          4          5
     1  O    0.000000
     2  C    1.258400   0.000000
     3  C    2.427572   1.540000   0.000000
     4  O    2.329803   1.430000   2.572683   0.000000
     5  C    2.710105   2.366250   3.765760   1.301300   0.000000
     6  C    3.354471   3.223151   4.596592   2.341142   1.401400
     7  C    3.354469   3.223151   4.596593   2.341142   1.401400
     8  C    4.366703   4.468539   5.918117   3.613319   2.427296
     9  C    4.366700   4.468538   5.918117   3.613319   2.427296
    10  C    4.793318   4.975682   6.478567   4.104100   2.802800
    11  F    3.618601   3.373586   4.476833   2.727376   2.382921
    12  F    3.618600   3.373587   4.476836   2.727376   2.382921
    13  F    5.332811   5.494363   6.879193   4.723452   3.659226
    14  F    5.332806   5.494361   6.879193   4.723452   3.659226
    15  F    6.009256   6.292177   7.807939   5.454100   4.152800
    16  F    3.109323   2.362224   1.350000   3.235846   4.382249
    17  F    3.474249   2.362224   1.350000   2.782186   4.058815
    18  F    2.695434   2.362224   1.350000   3.633296   4.683402
                    6          7          8          9         10
     6  C    0.000000
     7  C    2.427296   0.000000
     8  C    1.401400   2.802800   0.000000
     9  C    2.802800   1.401400   2.427296   0.000000
    10  C    2.427296   2.427296   1.401400   1.401400   0.000000
    11  F    1.350000   3.659226   2.382921   4.152800   3.659226
    12  F    3.659226   1.350000   4.152800   2.382921   3.659226
    13  F    2.382921   4.152800   1.350000   3.659226   2.382921
    14  F    4.152800   2.382921   3.659226   1.350000   2.382921
    15  F    3.659226   3.659226   2.382921   2.382921   1.350000
    16  F    4.867546   5.465520   6.232954   6.710336   7.036868
    17  F    5.059352   4.744219   6.383866   6.137126   6.840131
    18  F    5.572910   5.288467   6.798091   6.566932   7.228256
                   11         12         13         14         15
    11  F    0.000000
    12  F    4.765565   0.000000
    13  F    2.751400   5.502800   0.000000
    14  F    5.502800   2.751400   4.765565   0.000000
    15  F    4.765565   4.765565   2.751400   2.751400   0.000000
    16  F    4.361508   5.581571   6.984287   7.804576   8.350125
    17  F    5.038947   4.396071   7.426202   7.005922   8.185014
    18  F    5.554391   4.978525   7.785165   7.385337   8.512037
                   16         17         18
    16  F    0.000000
    17  F    2.204541   0.000000
    18  F    2.204541   2.204541   0.000000
 Stoichiometry    C8F8O2
 Framework group  C1[X(C8F8O2)]
 Deg. of freedom    48
 Full point group                 C1      NOp   1
 Largest Abelian subgroup         C1      NOp   1
 Largest concise Abelian subgroup C1      NOp   1
                         Standard orientation:                         
 ---------------------------------------------------------------------
 Center     Atomic      Atomic             Coordinates (Angstroms)
 Number     Number       Type             X           Y           Z
 ---------------------------------------------------------------------
      1          8           0        1.554209   -0.000004    1.551319
      2          6           0        1.947479   -0.000001    0.355949
      3          6           0        3.454995    0.000000    0.041313
      4          8           0        0.994541   -0.000000   -0.710263
      5          6           0       -0.279310   -0.000000   -0.444396
      6          6           0       -0.965229    1.213648   -0.301235
      7          6           0       -0.965230   -1.213648   -0.301236
      8          6           0       -2.337069    1.213648   -0.014919
      9          6           0       -2.337070   -1.213648   -0.014918
     10          6           0       -3.022990    0.000000    0.128239
     11          9           0       -0.304467    2.382782   -0.439140
     12          9           0       -0.304469   -2.382782   -0.439146
     13          9           0       -2.997832    2.382783    0.122987
     14          9           0       -2.997832   -2.382782    0.122991
     15          9           0       -4.344514    0.000001    0.404052
     16          9           0        3.895501    1.272793   -0.050624
     17          9           0        3.670299   -0.636393   -1.129647
     18          9           0        4.120707   -0.636397    1.028392
 ---------------------------------------------------------------------
 Rotational constants (GHZ):           0.7697239           0.2311981           0.1924515
 Leave Link  202 at Mon Aug 19 18:17:29 2024, MaxMem=  8589934592 cpu:               0.2 elap:               0.0
 (Enter /share/apps/g16.b01_avx2/g16/l301.exe)
 Standard basis: def2TZVP (5D, 7F)
 Ernie: Thresh=  0.10000D-02 Tol=  0.10000D-05 Strict=F.
 There are   648 symmetry adapted cartesian basis functions of A   symmetry.
 There are   558 symmetry adapted basis functions of A   symmetry.
   558 basis functions,   918 primitive gaussians,   648 cartesian basis functions
    68 alpha electrons       68 beta electrons
       nuclear repulsion energy      1419.0339019258 Hartrees.
 IExCor= 1009 DFT=T Ex+Corr=PBE1PBE ExCW=0 ScaHFX=  0.250000
 ScaDFX=  0.750000  0.750000  1.000000  1.000000 ScalE2=  1.000000  1.000000
 IRadAn=  99590 IRanWt=     -1 IRanGd=            0 ICorTp=0 IEmpDi=131
 NAtoms=   18 NActive=   18 NUniq=   18 SFac= 1.00D+00 NAtFMM=   60 NAOKFM=F Big=F
 Integral buffers will be    131072 words long.
 Raffenetti 2 integral format.
 Two-electron integral symmetry is turned on.
 R6Disp:  Grimme-D3 Dispersion energy=       -0.0095062723 Hartrees.
 Nuclear repulsion after empirical dispersion term =     1419.0243956535 Hartrees.
 ------------------------------------------------------------------------------
 Polarizable Continuum Model (PCM)
 =================================
 Model                : PCM.
 Atomic radii         : UFF (Universal Force Field).
 Polarization charges : Total charges.
 Charge compensation  : None.
 Solution method      : On-the-fly selection.
 Cavity type          : Scaled VdW (van der Waals Surface) (Alpha=1.100).
 Cavity algorithm     : GePol (No added spheres)
                        Default sphere list used, NSphG=   18.
                        Lebedev-Laikov grids with approx.  5.0 points / Ang**2.
                        Smoothing algorithm: York/Karplus (Gamma=1.0000).
                        Polarization charges: spherical gaussians, with
                                              point-specific exponents (IZeta= 3).
                        Self-potential: point-specific (ISelfS= 7).
                        Self-field    : sphere-specific E.n sum rule (ISelfD= 2).
 1st derivatives      : Analytical E(r).r(x)/FMM algorithm (CHGder, D1EAlg=3).
                        Cavity 1st derivative terms included.
 Solvent              : Water, Eps=  78.355300 Eps(inf)=   1.777849
 ------------------------------------------------------------------------------
 Spheres list:
 ISph  on   Nord     Re0    Alpha      Xe            Ye            Ze
    1   O      1    1.7500  1.100      1.554209     -0.000004      1.551319
    2   C      2    1.9255  1.100      1.947479     -0.000001      0.355949
    3   C      3    1.9255  1.100      3.454995      0.000000      0.041313
    4   O      4    1.7500  1.100      0.994541     -0.000000     -0.710263
    5   C      5    1.9255  1.100     -0.279310     -0.000000     -0.444396
    6   C      6    1.9255  1.100     -0.965229      1.213648     -0.301235
    7   C      7    1.9255  1.100     -0.965230     -1.213648     -0.301236
    8   C      8    1.9255  1.100     -2.337069      1.213648     -0.014919
    9   C      9    1.9255  1.100     -2.337070     -1.213648     -0.014918
   10   C     10    1.9255  1.100     -3.022990      0.000000      0.128239
   11   F     11    1.6820  1.100     -0.304467      2.382782     -0.439140
   12   F     12    1.6820  1.100     -0.304469     -2.382782     -0.439146
   13   F     13    1.6820  1.100     -2.997832      2.382783      0.122987
   14   F     14    1.6820  1.100     -2.997832     -2.382782      0.122991
   15   F     15    1.6820  1.100     -4.344514      0.000001      0.404052
   16   F     16    1.6820  1.100      3.895501      1.272793     -0.050624
   17   F     17    1.6820  1.100      3.670299     -0.636393     -1.129647
   18   F     18    1.6820  1.100      4.120707     -0.636397      1.028392
 ------------------------------------------------------------------------------
 GePol: Number of generator spheres                  =      18
 GePol: Total number of spheres                      =      18
 GePol: Number of exposed spheres                    =      18 (100.00%)
 GePol: Number of points                             =    2109
 GePol: Average weight of points                     =       0.12
 GePol: Minimum weight of points                     =   0.15D-08
 GePol: Maximum weight of points                     =    0.20577
 GePol: Number of points with low weight             =      66
 GePol: Fraction of low-weight points (<1% of avg)   =       3.13%
 GePol: Cavity surface area                          =    257.756 Ang**2
 GePol: Cavity volume                                =    259.634 Ang**3
 Leave Link  301 at Mon Aug 19 18:17:29 2024, MaxMem=  8589934592 cpu:               1.6 elap:               0.1
 (Enter /share/apps/g16.b01_avx2/g16/l302.exe)
 NPDir=0 NMtPBC=     1 NCelOv=     1 NCel=       1 NClECP=     1 NCelD=      1
         NCelK=      1 NCelE2=     1 NClLst=     1 CellRange=     0.0.
 One-electron integrals computed using PRISM.
 One-electron integral symmetry used in STVInt
   1 Symmetry operations used in ECPInt.
 ECPInt:  NShTT=   19701 NPrTT=   65376 LenC2=   16736 LenP2D=   39043.
 LDataN:  DoStor=T MaxTD1= 6 Len=  172
 NBasis=   558 RedAO= T EigKep=  1.80D-05  NBF=   558
 NBsUse=   558 1.00D-06 EigRej= -1.00D+00 NBFU=   558
 Precomputing XC quadrature grid using
 IXCGrd= 4 IRadAn=       99590 IRanWt=          -1 IRanGd=           0 AccXCQ= 0.00D+00.
 Generated NRdTot=       0 NPtTot=           0 NUsed=           0 NTot=          32
 NSgBfM=   635   635   635   635   635 MxSgAt=    18 MxSgA2=    18.
 Leave Link  302 at Mon Aug 19 18:17:29 2024, MaxMem=  8589934592 cpu:              10.2 elap:               0.4
 (Enter /share/apps/g16.b01_avx2/g16/l303.exe)
 DipDrv:  MaxL=1.
 Leave Link  303 at Mon Aug 19 18:17:30 2024, MaxMem=  8589934592 cpu:               1.5 elap:               0.1
 (Enter /share/apps/g16.b01_avx2/g16/l401.exe)
 ExpMin= 9.52D-02 ExpMax= 3.55D+04 ExpMxC= 1.21D+03 IAcc=4 IRadAn=    199590 AccDes= 0.00D+00
 Harris functional with IExCor= 1009 and IRadAn=  199590 diagonalized for initial guess.
 HarFok:  IExCor= 1009 AccDes= 0.00D+00 IRadAn=    199590 IDoV= 1 UseB2=F ITyADJ=14
 ICtDFT=  3500011 ScaDFX=  1.000000  1.000000  1.000000  1.000000
 FoFCou: FMM=F IPFlag=           0 FMFlag=      100000 FMFlg1=           0
         NFxFlg=           0 DoJE=T BraDBF=F KetDBF=T FulRan=T
         wScrn=  0.000000 ICntrl=       500 IOpCl=  0 I1Cent=   200000004 NGrid=           0
         NMat0=    1 NMatS0=      1 NMatT0=    0 NMatD0=    1 NMtDS0=    0 NMtDT0=    0
 Petite list used in FoFCou.
 Harris En= -1253.27440771831    
 JPrj=0 DoOrth=F DoCkMO=F.
 Leave Link  401 at Mon Aug 19 18:17:32 2024, MaxMem=  8589934592 cpu:              45.5 elap:               1.9
 (Enter /share/apps/g16.b01_avx2/g16/l502.exe)
 Integral symmetry usage will be decided dynamically.
 Closed shell SCF:
 Using DIIS extrapolation, IDIIS=  1040.
 NGot=  8589934592 LenX=  8589073864 LenY=  8588653312
 Requested convergence on RMS density matrix=1.00D-08 within 128 cycles.
 Requested convergence on MAX density matrix=1.00D-06.
 Requested convergence on             energy=1.00D-06.
 No special actions if energy rises.
 Fock matrices will be formed incrementally for  20 cycles.

 Cycle   1  Pass 1  IDiag  1:
 FoFJK:  IHMeth= 1 ICntrl=       0 DoSepK=F KAlg= 0 I1Cent=           0 FoldK=F
 IRaf= 780000000 NMat=       1 IRICut=       1 DoRegI=T DoRafI=F ISym2E= 0 IDoP0=0 IntGTp=1.
 FoFCou: FMM=F IPFlag=           0 FMFlag=      100000 FMFlg1=           0
         NFxFlg=           0 DoJE=F BraDBF=F KetDBF=F FulRan=T
         wScrn=  0.000000 ICntrl=         0 IOpCl=  0 I1Cent=           0 NGrid=           0
         NMat0=    1 NMatS0=      1 NMatT0=    0 NMatD0=    1 NMtDS0=    0 NMtDT0=    0
 Symmetry not used in FoFCou.
 Inv3:  Mode=1 IEnd=    13343643.
 Iteration    1 A*A^-1 deviation from unit magnitude is 3.89D-15 for   1248.
 Iteration    1 A*A^-1 deviation from orthogonality  is 1.52D-15 for   1786   1122.
 Iteration    1 A^-1*A deviation from unit magnitude is 3.33D-15 for    684.
 Iteration    1 A^-1*A deviation from orthogonality  is 1.33D-15 for   2079    234.
 E= -1253.07070965492    
 DIIS: error= 2.43D-02 at cycle   1 NSaved=   1.
 NSaved= 1 IEnMin= 1 EnMin= -1253.07070965492     IErMin= 1 ErrMin= 2.43D-02
 ErrMax= 2.43D-02  0.00D+00 EMaxC= 1.00D-01 BMatC= 3.05D-01 BMatP= 3.05D-01
 IDIUse=3 WtCom= 7.57D-01 WtEn= 2.43D-01
 Coeff-Com:  0.100D+01
 Coeff-En:   0.100D+01
 Coeff:      0.100D+01
 Gap=     0.152 Goal=   None    Shift=    0.000
 GapD=    0.152 DampG=1.000 DampE=0.500 DampFc=0.5000 IDamp=-1.
 Damping current iteration by 5.00D-01
 RMSDP=1.41D-03 MaxDP=1.23D-01              OVMax= 2.69D-01

 Cycle   2  Pass 1  IDiag  1:
 RMSU=  7.01D-04    CP:  9.93D-01
 E= -1253.08970911906     Delta-E=       -0.018999464133 Rises=F Damp=T
 DIIS: error= 9.47D-03 at cycle   2 NSaved=   2.
 NSaved= 2 IEnMin= 2 EnMin= -1253.08970911906     IErMin= 2 ErrMin= 9.47D-03
 ErrMax= 9.47D-03  0.00D+00 EMaxC= 1.00D-01 BMatC= 6.86D-02 BMatP= 3.05D-01
 IDIUse=3 WtCom= 9.05D-01 WtEn= 9.47D-02
 Coeff-Com:  0.244D+00 0.756D+00
 Coeff-En:   0.453D+00 0.547D+00
 Coeff:      0.264D+00 0.736D+00
 Gap=     0.240 Goal=   None    Shift=    0.000
 RMSDP=6.03D-04 MaxDP=3.92D-02 DE=-1.90D-02 OVMax= 1.58D-01

 Cycle   3  Pass 1  IDiag  1:
 RMSU=  5.72D-04    CP:  9.84D-01  7.54D-01
 E= -1253.22347567261     Delta-E=       -0.133766553553 Rises=F Damp=F
 DIIS: error= 9.33D-03 at cycle   3 NSaved=   3.
 NSaved= 3 IEnMin= 3 EnMin= -1253.22347567261     IErMin= 3 ErrMin= 9.33D-03
 ErrMax= 9.33D-03  0.00D+00 EMaxC= 1.00D-01 BMatC= 3.77D-02 BMatP= 6.86D-02
 IDIUse=3 WtCom= 9.07D-01 WtEn= 9.33D-02
 Coeff-Com:  0.176D-01 0.415D+00 0.567D+00
 Coeff-En:   0.000D+00 0.000D+00 0.100D+01
 Coeff:      0.160D-01 0.377D+00 0.607D+00
 Gap=     0.206 Goal=   None    Shift=    0.000
 RMSDP=3.40D-04 MaxDP=3.24D-02 DE=-1.34D-01 OVMax= 9.65D-02

 Cycle   4  Pass 1  IDiag  1:
 RMSU=  3.16D-04    CP:  9.80D-01  9.02D-01  8.89D-01
 E= -1253.24295760712     Delta-E=       -0.019481934510 Rises=F Damp=F
 DIIS: error= 3.93D-03 at cycle   4 NSaved=   4.
 NSaved= 4 IEnMin= 4 EnMin= -1253.24295760712     IErMin= 4 ErrMin= 3.93D-03
 ErrMax= 3.93D-03  0.00D+00 EMaxC= 1.00D-01 BMatC= 1.22D-02 BMatP= 3.77D-02
 IDIUse=3 WtCom= 9.61D-01 WtEn= 3.93D-02
 Coeff-Com: -0.230D-01 0.135D+00 0.398D+00 0.490D+00
 Coeff-En:   0.000D+00 0.000D+00 0.267D+00 0.733D+00
 Coeff:     -0.221D-01 0.129D+00 0.393D+00 0.500D+00
 Gap=     0.200 Goal=   None    Shift=    0.000
 RMSDP=1.30D-04 MaxDP=1.02D-02 DE=-1.95D-02 OVMax= 3.54D-02

 Cycle   5  Pass 1  IDiag  1:
 RMSU=  7.66D-05    CP:  9.80D-01  8.70D-01  9.76D-01  7.18D-01
 E= -1253.25125890456     Delta-E=       -0.008301297445 Rises=F Damp=F
 DIIS: error= 6.37D-04 at cycle   5 NSaved=   5.
 NSaved= 5 IEnMin= 5 EnMin= -1253.25125890456     IErMin= 5 ErrMin= 6.37D-04
 ErrMax= 6.37D-04  0.00D+00 EMaxC= 1.00D-01 BMatC= 4.62D-04 BMatP= 1.22D-02
 IDIUse=3 WtCom= 9.94D-01 WtEn= 6.37D-03
 Coeff-Com: -0.115D-01 0.252D-01 0.132D+00 0.248D+00 0.605D+00
 Coeff-En:   0.000D+00 0.000D+00 0.000D+00 0.000D+00 0.100D+01
 Coeff:     -0.115D-01 0.251D-01 0.132D+00 0.247D+00 0.608D+00
 Gap=     0.200 Goal=   None    Shift=    0.000
 RMSDP=3.42D-05 MaxDP=2.02D-03 DE=-8.30D-03 OVMax= 5.77D-03

 Cycle   6  Pass 1  IDiag  1:
 RMSU=  1.52D-05    CP:  9.80D-01  8.78D-01  9.58D-01  7.20D-01  6.35D-01
 E= -1253.25159852577     Delta-E=       -0.000339621209 Rises=F Damp=F
 DIIS: error= 1.50D-04 at cycle   6 NSaved=   6.
 NSaved= 6 IEnMin= 6 EnMin= -1253.25159852577     IErMin= 6 ErrMin= 1.50D-04
 ErrMax= 1.50D-04  0.00D+00 EMaxC= 1.00D-01 BMatC= 2.66D-05 BMatP= 4.62D-04
 IDIUse=3 WtCom= 9.99D-01 WtEn= 1.50D-03
 Coeff-Com: -0.468D-02 0.666D-02 0.469D-01 0.968D-01 0.303D+00 0.551D+00
 Coeff-En:   0.000D+00 0.000D+00 0.000D+00 0.000D+00 0.000D+00 0.100D+01
 Coeff:     -0.467D-02 0.665D-02 0.469D-01 0.967D-01 0.303D+00 0.552D+00
 Gap=     0.200 Goal=   None    Shift=    0.000
 RMSDP=7.74D-06 MaxDP=4.17D-04 DE=-3.40D-04 OVMax= 1.75D-03

 Cycle   7  Pass 1  IDiag  1:
 RMSU=  5.45D-06    CP:  9.80D-01  8.80D-01  9.59D-01  7.15D-01  6.75D-01
                    CP:  7.28D-01
 E= -1253.25161746886     Delta-E=       -0.000018943088 Rises=F Damp=F
 DIIS: error= 7.72D-05 at cycle   7 NSaved=   7.
 NSaved= 7 IEnMin= 7 EnMin= -1253.25161746886     IErMin= 7 ErrMin= 7.72D-05
 ErrMax= 7.72D-05  0.00D+00 EMaxC= 1.00D-01 BMatC= 3.00D-06 BMatP= 2.66D-05
 IDIUse=1 WtCom= 1.00D+00 WtEn= 0.00D+00
 Coeff-Com: -0.993D-03 0.469D-03 0.817D-02 0.181D-01 0.823D-01 0.287D+00
 Coeff-Com:  0.605D+00
 Coeff:     -0.993D-03 0.469D-03 0.817D-02 0.181D-01 0.823D-01 0.287D+00
 Coeff:      0.605D+00
 Gap=     0.200 Goal=   None    Shift=    0.000
 RMSDP=2.40D-06 MaxDP=1.16D-04 DE=-1.89D-05 OVMax= 4.44D-04

 Cycle   8  Pass 1  IDiag  1:
 RMSU=  1.46D-06    CP:  9.80D-01  8.79D-01  9.60D-01  7.17D-01  6.72D-01
                    CP:  7.78D-01  7.48D-01
 E= -1253.25161954578     Delta-E=       -0.000002076914 Rises=F Damp=F
 DIIS: error= 1.13D-05 at cycle   8 NSaved=   8.
 NSaved= 8 IEnMin= 8 EnMin= -1253.25161954578     IErMin= 8 ErrMin= 1.13D-05
 ErrMax= 1.13D-05  0.00D+00 EMaxC= 1.00D-01 BMatC= 1.07D-07 BMatP= 3.00D-06
 IDIUse=1 WtCom= 1.00D+00 WtEn= 0.00D+00
 Coeff-Com:  0.237D-05-0.339D-03-0.592D-03-0.175D-02 0.573D-02 0.528D-01
 Coeff-Com:  0.189D+00 0.755D+00
 Coeff:      0.237D-05-0.339D-03-0.592D-03-0.175D-02 0.573D-02 0.528D-01
 Coeff:      0.189D+00 0.755D+00
 Gap=     0.200 Goal=   None    Shift=    0.000
 RMSDP=6.67D-07 MaxDP=5.19D-05 DE=-2.08D-06 OVMax= 1.12D-04

 Cycle   9  Pass 1  IDiag  1:
 RMSU=  4.37D-07    CP:  9.80D-01  8.79D-01  9.60D-01  7.17D-01  6.75D-01
                    CP:  7.94D-01  7.97D-01  8.43D-01
 E= -1253.25161962091     Delta-E=       -0.000000075139 Rises=F Damp=F
 DIIS: error= 5.46D-06 at cycle   9 NSaved=   9.
 NSaved= 9 IEnMin= 9 EnMin= -1253.25161962091     IErMin= 9 ErrMin= 5.46D-06
 ErrMax= 5.46D-06  0.00D+00 EMaxC= 1.00D-01 BMatC= 2.52D-08 BMatP= 1.07D-07
 IDIUse=1 WtCom= 1.00D+00 WtEn= 0.00D+00
 Coeff-Com:  0.779D-04-0.217D-03-0.833D-03-0.226D-02-0.316D-02 0.479D-02
 Coeff-Com:  0.498D-01 0.393D+00 0.558D+00
 Coeff:      0.779D-04-0.217D-03-0.833D-03-0.226D-02-0.316D-02 0.479D-02
 Coeff:      0.498D-01 0.393D+00 0.558D+00
 Gap=     0.200 Goal=   None    Shift=    0.000
 RMSDP=2.14D-07 MaxDP=1.18D-05 DE=-7.51D-08 OVMax= 4.47D-05

 Cycle  10  Pass 1  IDiag  1:
 RMSU=  1.44D-07    CP:  9.80D-01  8.79D-01  9.60D-01  7.17D-01  6.74D-01
                    CP:  7.96D-01  7.91D-01  9.03D-01  7.52D-01
 E= -1253.25161963857     Delta-E=       -0.000000017657 Rises=F Damp=F
 DIIS: error= 1.52D-06 at cycle  10 NSaved=  10.
 NSaved=10 IEnMin=10 EnMin= -1253.25161963857     IErMin=10 ErrMin= 1.52D-06
 ErrMax= 1.52D-06  0.00D+00 EMaxC= 1.00D-01 BMatC= 2.09D-09 BMatP= 2.52D-08
 IDIUse=1 WtCom= 1.00D+00 WtEn= 0.00D+00
 Coeff-Com:  0.389D-04-0.783D-04-0.280D-03-0.843D-03-0.180D-02-0.288D-02
 Coeff-Com:  0.562D-02 0.114D+00 0.267D+00 0.620D+00
 Coeff:      0.389D-04-0.783D-04-0.280D-03-0.843D-03-0.180D-02-0.288D-02
 Coeff:      0.562D-02 0.114D+00 0.267D+00 0.620D+00
 Gap=     0.200 Goal=   None    Shift=    0.000
 RMSDP=6.52D-08 MaxDP=2.94D-06 DE=-1.77D-08 OVMax= 1.08D-05

 Cycle  11  Pass 1  IDiag  1:
 RMSU=  4.38D-08    CP:  9.80D-01  8.79D-01  9.60D-01  7.17D-01  6.75D-01
                    CP:  7.95D-01  7.95D-01  9.12D-01  8.01D-01  7.92D-01
 E= -1253.25161964019     Delta-E=       -0.000000001620 Rises=F Damp=F
 DIIS: error= 3.86D-07 at cycle  11 NSaved=  11.
 NSaved=11 IEnMin=11 EnMin= -1253.25161964019     IErMin=11 ErrMin= 3.86D-07
 ErrMax= 3.86D-07  0.00D+00 EMaxC= 1.00D-01 BMatC= 1.07D-10 BMatP= 2.09D-09
 IDIUse=1 WtCom= 1.00D+00 WtEn= 0.00D+00
 Coeff-Com:  0.437D-05-0.470D-05 0.223D-04 0.214D-04-0.105D-03-0.145D-02
 Coeff-Com: -0.448D-02-0.173D-01-0.427D-03 0.164D+00 0.859D+00
 Coeff:      0.437D-05-0.470D-05 0.223D-04 0.214D-04-0.105D-03-0.145D-02
 Coeff:     -0.448D-02-0.173D-01-0.427D-03 0.164D+00 0.859D+00
 Gap=     0.200 Goal=   None    Shift=    0.000
 RMSDP=1.93D-08 MaxDP=8.92D-07 DE=-1.62D-09 OVMax= 4.24D-06

 Cycle  12  Pass 1  IDiag  1:
 RMSU=  1.19D-08    CP:  9.80D-01  8.79D-01  9.60D-01  7.17D-01  6.75D-01
                    CP:  7.96D-01  7.95D-01  9.16D-01  8.12D-01  8.67D-01
                    CP:  1.00D+00
 E= -1253.25161964028     Delta-E=       -0.000000000090 Rises=F Damp=F
 DIIS: error= 1.10D-07 at cycle  12 NSaved=  12.
 NSaved=12 IEnMin=12 EnMin= -1253.25161964028     IErMin=12 ErrMin= 1.10D-07
 ErrMax= 1.10D-07  0.00D+00 EMaxC= 1.00D-01 BMatC= 1.09D-11 BMatP= 1.07D-10
 IDIUse=1 WtCom= 1.00D+00 WtEn= 0.00D+00
 Coeff-Com:  0.965D-06 0.562D-06 0.209D-04 0.399D-04 0.130D-04-0.551D-03
 Coeff-Com: -0.225D-02-0.127D-01-0.132D-01 0.427D-01 0.380D+00 0.606D+00
 Coeff:      0.965D-06 0.562D-06 0.209D-04 0.399D-04 0.130D-04-0.551D-03
 Coeff:     -0.225D-02-0.127D-01-0.132D-01 0.427D-01 0.380D+00 0.606D+00
 Gap=     0.200 Goal=   None    Shift=    0.000
 RMSDP=6.48D-09 MaxDP=3.56D-07 DE=-9.00D-11 OVMax= 1.15D-06

 Error on total polarization charges =  0.00650
 SCF Done:  E(RPBE1PBE) =  -1253.25161964     A.U. after   12 cycles
            NFock= 12  Conv=0.65D-08     -V/T= 2.0043
 KE= 1.247940788104D+03 PE=-5.803617113028D+03 EE= 1.883400309631D+03
 Leave Link  502 at Mon Aug 19 18:18:27 2024, MaxMem=  8589934592 cpu:            1314.2 elap:              55.2
 (Enter /share/apps/g16.b01_avx2/g16/l601.exe)
 Copying SCF densities to generalized density rwf, IOpCl= 0 IROHF=0.

 **********************************************************************

            Population analysis using the SCF Density.

 **********************************************************************

 Orbital symmetries:
       Occupied  (A) (A) (A) (A) (A) (A) (A) (A) (A) (A) (A) (A)
                 (A) (A) (A) (A) (A) (A) (A) (A) (A) (A) (A) (A)
                 (A) (A) (A) (A) (A) (A) (A) (A) (A) (A) (A) (A)
                 (A) (A) (A) (A) (A) (A) (A) (A) (A) (A) (A) (A)
                 (A) (A) (A) (A) (A) (A) (A) (A) (A) (A) (A) (A)
                 (A) (A) (A) (A) (A) (A) (A) (A)
       Virtual   (A) (A) (A) (A) (A) (A) (A) (A) (A) (A) (A) (A)
                 (A) (A) (A) (A) (A) (A) (A) (A) (A) (A) (A) (A)
                 (A) (A) (A) (A) (A) (A) (A) (A) (A) (A) (A) (A)
                 (A) (A) (A) (A) (A) (A) (A) (A) (A) (A) (A) (A)
                 (A) (A) (A) (A) (A) (A) (A) (A) (A) (A) (A) (A)
                 (A) (A) (A) (A) (A) (A) (A) (A) (A) (A) (A) (A)
                 (A) (A) (A) (A) (A) (A) (A) (A) (A) (A) (A) (A)
                 (A) (A) (A) (A) (A) (A) (A) (A) (A) (A) (A) (A)
                 (A) (A) (A) (A) (A) (A) (A) (A) (A) (A) (A) (A)
                 (A) (A) (A) (A) (A) (A) (A) (A) (A) (A) (A) (A)
                 (A) (A) (A) (A) (A) (A) (A) (A) (A) (A) (A) (A)
                 (A) (A) (A) (A) (A) (A) (A) (A) (A) (A) (A) (A)
                 (A) (A) (A) (A) (A) (A) (A) (A) (A) (A) (A) (A)
                 (A) (A) (A) (A) (A) (A) (A) (A) (A) (A) (A) (A)
                 (A) (A) (A) (A) (A) (A) (A) (A) (A) (A) (A) (A)
                 (A) (A) (A) (A) (A) (A) (A) (A) (A) (A) (A) (A)
                 (A) (A) (A) (A) (A) (A) (A) (A) (A) (A) (A) (A)
                 (A) (A) (A) (A) (A) (A) (A) (A) (A) (A) (A) (A)
                 (A) (A) (A) (A) (A) (A) (A) (A) (A) (A) (A) (A)
                 (A) (A) (A) (A) (A) (A) (A) (A) (A) (A) (A) (A)
                 (A) (A) (A) (A) (A) (A) (A) (A) (A) (A) (A) (A)
                 (A) (A) (A) (A) (A) (A) (A) (A) (A) (A) (A) (A)
                 (A) (A) (A) (A) (A) (A) (A) (A) (A) (A) (A) (A)
                 (A) (A) (A) (A) (A) (A) (A) (A) (A) (A) (A) (A)
                 (A) (A) (A) (A) (A) (A) (A) (A) (A) (A) (A) (A)
                 (A) (A) (A) (A) (A) (A) (A) (A) (A) (A) (A) (A)
                 (A) (A) (A) (A) (A) (A) (A) (A) (A) (A) (A) (A)
                 (A) (A) (A) (A) (A) (A) (A) (A) (A) (A) (A) (A)
                 (A) (A) (A) (A) (A) (A) (A) (A) (A) (A) (A) (A)
                 (A) (A) (A) (A) (A) (A) (A) (A) (A) (A) (A) (A)
                 (A) (A) (A) (A) (A) (A) (A) (A) (A) (A) (A) (A)
                 (A) (A) (A) (A) (A) (A) (A) (A) (A) (A) (A) (A)
                 (A) (A) (A) (A) (A) (A) (A) (A) (A) (A) (A) (A)
                 (A) (A) (A) (A) (A) (A) (A) (A) (A) (A) (A) (A)
                 (A) (A) (A) (A) (A) (A) (A) (A) (A) (A) (A) (A)
                 (A) (A) (A) (A) (A) (A) (A) (A) (A) (A) (A) (A)
                 (A) (A) (A) (A) (A) (A) (A) (A) (A) (A) (A) (A)
                 (A) (A) (A) (A) (A) (A) (A) (A) (A) (A) (A) (A)
                 (A) (A) (A) (A) (A) (A) (A) (A) (A) (A) (A) (A)
                 (A) (A) (A) (A) (A) (A) (A) (A) (A) (A) (A) (A)
                 (A) (A) (A) (A) (A) (A) (A) (A) (A) (A)
 The electronic state is 1-A.
 Alpha  occ. eigenvalues --  -24.84243 -24.84108 -24.83845 -24.82571 -24.82570
 Alpha  occ. eigenvalues --  -24.82473 -24.82298 -24.82297 -19.32056 -19.26630
 Alpha  occ. eigenvalues --  -10.52915 -10.43626 -10.36489 -10.36268 -10.36260
 Alpha  occ. eigenvalues --  -10.36210 -10.36205 -10.34303  -1.37855  -1.30735
 Alpha  occ. eigenvalues --   -1.30267  -1.29811  -1.29493  -1.29340  -1.29033
 Alpha  occ. eigenvalues --   -1.28578  -1.19773  -1.10138  -0.93970  -0.84390
 Alpha  occ. eigenvalues --   -0.82263  -0.80268  -0.73603  -0.70839  -0.68510
 Alpha  occ. eigenvalues --   -0.65733  -0.64996  -0.64253  -0.63538  -0.62908
 Alpha  occ. eigenvalues --   -0.60088  -0.58235  -0.57300  -0.56763  -0.56040
 Alpha  occ. eigenvalues --   -0.54988  -0.53036  -0.52617  -0.52181  -0.51938
 Alpha  occ. eigenvalues --   -0.50430  -0.50396  -0.49808  -0.49630  -0.48564
 Alpha  occ. eigenvalues --   -0.48150  -0.47808  -0.47028  -0.46523  -0.45844
 Alpha  occ. eigenvalues --   -0.45294  -0.44071  -0.42443  -0.38568  -0.38041
 Alpha  occ. eigenvalues --   -0.35667  -0.29011  -0.28836
 Alpha virt. eigenvalues --   -0.08806  -0.04658  -0.03549  -0.03016   0.04957
 Alpha virt. eigenvalues --    0.06009   0.07897   0.10228   0.11433   0.12570
 Alpha virt. eigenvalues --    0.14540   0.15474   0.15947   0.16229   0.17314
 Alpha virt. eigenvalues --    0.18915   0.19142   0.19799   0.20824   0.21887
 Alpha virt. eigenvalues --    0.22567   0.22724   0.23925   0.24825   0.26318
 Alpha virt. eigenvalues --    0.26512   0.26902   0.28193   0.28762   0.29174
 Alpha virt. eigenvalues --    0.29548   0.30080   0.31458   0.32839   0.33244
 Alpha virt. eigenvalues --    0.35964   0.36068   0.36707   0.38596   0.39094
 Alpha virt. eigenvalues --    0.39617   0.39960   0.40124   0.41412   0.41577
 Alpha virt. eigenvalues --    0.42230   0.43481   0.44836   0.45032   0.45762
 Alpha virt. eigenvalues --    0.47415   0.48560   0.49210   0.50912   0.51939
 Alpha virt. eigenvalues --    0.53876   0.54413   0.55382   0.56100   0.58618
 Alpha virt. eigenvalues --    0.59312   0.59587   0.61619   0.61869   0.64275
 Alpha virt. eigenvalues --    0.65332   0.66207   0.67102   0.67509   0.68066
 Alpha virt. eigenvalues --    0.69384   0.70794   0.71815   0.71913   0.72520
 Alpha virt. eigenvalues --    0.73342   0.74391   0.75477   0.75822   0.77072
 Alpha virt. eigenvalues --    0.78536   0.79254   0.80543   0.81426   0.83134
 Alpha virt. eigenvalues --    0.83427   0.84031   0.84369   0.85713   0.86008
 Alpha virt. eigenvalues --    0.86875   0.87421   0.88101   0.89459   0.90698
 Alpha virt. eigenvalues --    0.92256   0.92750   0.94190   0.94568   0.95535
 Alpha virt. eigenvalues --    0.98107   0.99500   1.00264   1.00725   1.01720
 Alpha virt. eigenvalues --    1.02637   1.04613   1.04940   1.06442   1.08376
 Alpha virt. eigenvalues --    1.08873   1.10216   1.11035   1.12507   1.12835
 Alpha virt. eigenvalues --    1.16219   1.17063   1.17740   1.18248   1.24259
 Alpha virt. eigenvalues --    1.24857   1.27531   1.30612   1.30903   1.34125
 Alpha virt. eigenvalues --    1.34765   1.36064   1.36970   1.37761   1.41397
 Alpha virt. eigenvalues --    1.41679   1.43159   1.43880   1.45247   1.49554
 Alpha virt. eigenvalues --    1.50641   1.55094   1.57006   1.57094   1.59595
 Alpha virt. eigenvalues --    1.60882   1.64823   1.68883   1.70249   1.71494
 Alpha virt. eigenvalues --    1.71578   1.73108   1.74138   1.76170   1.77540
 Alpha virt. eigenvalues --    1.78392   1.79541   1.81606   1.83441   1.85429
 Alpha virt. eigenvalues --    1.87242   1.89198   1.91172   1.92238   1.92496
 Alpha virt. eigenvalues --    1.94184   1.94304   1.94818   1.98992   2.00075
 Alpha virt. eigenvalues --    2.01503   2.02463   2.02638   2.03474   2.04051
 Alpha virt. eigenvalues --    2.05369   2.05661   2.09200   2.10666   2.11324
 Alpha virt. eigenvalues --    2.11399   2.13745   2.16146   2.17109   2.17531
 Alpha virt. eigenvalues --    2.19026   2.20484   2.21523   2.22903   2.26020
 Alpha virt. eigenvalues --    2.26459   2.28508   2.29732   2.30616   2.31427
 Alpha virt. eigenvalues --    2.33781   2.36610   2.39432   2.42510   2.43105
 Alpha virt. eigenvalues --    2.44337   2.47228   2.47515   2.48054   2.49364
 Alpha virt. eigenvalues --    2.51550   2.53916   2.56320   2.56753   2.58772
 Alpha virt. eigenvalues --    2.59359   2.60469   2.60758   2.62057   2.63538
 Alpha virt. eigenvalues --    2.66760   2.69640   2.70217   2.74825   2.74952
 Alpha virt. eigenvalues --    2.76702   2.78678   2.79246   2.81139   2.81517
 Alpha virt. eigenvalues --    2.83429   2.83718   2.84328   2.85851   2.87421
 Alpha virt. eigenvalues --    2.87907   2.88808   2.90881   2.91929   2.92119
 Alpha virt. eigenvalues --    2.93821   2.94120   2.95308   2.97113   2.97630
 Alpha virt. eigenvalues --    2.98601   2.99846   3.00583   3.01289   3.02307
 Alpha virt. eigenvalues --    3.03887   3.04282   3.05424   3.06870   3.07817
 Alpha virt. eigenvalues --    3.08754   3.09232   3.10817   3.11146   3.12878
 Alpha virt. eigenvalues --    3.14148   3.15113   3.16254   3.16514   3.17425
 Alpha virt. eigenvalues --    3.17870   3.19220   3.19656   3.20489   3.21177
 Alpha virt. eigenvalues --    3.22612   3.24828   3.26126   3.27620   3.28450
 Alpha virt. eigenvalues --    3.31691   3.32765   3.33839   3.36734   3.37495
 Alpha virt. eigenvalues --    3.39778   3.39969   3.41361   3.42957   3.43636
 Alpha virt. eigenvalues --    3.44093   3.44805   3.45923   3.47183   3.47894
 Alpha virt. eigenvalues --    3.50029   3.51619   3.54732   3.55356   3.58877
 Alpha virt. eigenvalues --    3.60123   3.63978   3.64376   3.65013   3.68099
 Alpha virt. eigenvalues --    3.70930   3.72609   3.75578   3.75989   3.78271
 Alpha virt. eigenvalues --    3.80503   3.81223   3.81546   3.83586   3.85009
 Alpha virt. eigenvalues --    3.86747   3.88085   3.88650   3.91580   3.92490
 Alpha virt. eigenvalues --    3.94605   3.96338   3.98415   4.00540   4.02366
 Alpha virt. eigenvalues --    4.05483   4.07505   4.07848   4.08894   4.09315
 Alpha virt. eigenvalues --    4.11363   4.13759   4.14747   4.15678   4.17819
 Alpha virt. eigenvalues --    4.21527   4.22970   4.26961   4.27675   4.30543
 Alpha virt. eigenvalues --    4.31060   4.34091   4.34533   4.41929   4.46654
 Alpha virt. eigenvalues --    4.50929   4.55868   4.61631   4.68652   4.68839
 Alpha virt. eigenvalues --    4.72335   4.77717   4.81202   4.83304   4.88075
 Alpha virt. eigenvalues --    4.90057   4.95598   5.08334   5.11554   5.14566
 Alpha virt. eigenvalues --    5.23396   5.26478   5.28227   5.30458   5.31351
 Alpha virt. eigenvalues --    5.35946   5.39418   5.41751   5.49583   5.50670
 Alpha virt. eigenvalues --    5.51532   5.67979   5.80540   5.83074   5.89409
 Alpha virt. eigenvalues --    5.95417   6.07982   6.14258   6.30734   6.35063
 Alpha virt. eigenvalues --    6.39065   6.43054   6.53189   6.62334   6.68559
 Alpha virt. eigenvalues --    6.76088   6.77975   6.81978   6.82347   6.82421
 Alpha virt. eigenvalues --    6.82756   6.83091   6.83456   6.84111   6.84359
 Alpha virt. eigenvalues --    6.84416   6.84635   6.84643   6.84844   6.84935
 Alpha virt. eigenvalues --    6.85815   6.85940   6.86003   6.86112   6.86509
 Alpha virt. eigenvalues --    6.89959   6.91601   6.91931   6.93678   6.94490
 Alpha virt. eigenvalues --    6.95029   6.95243   6.97736   6.98046   6.99336
 Alpha virt. eigenvalues --    6.99989   7.01701   7.02594   7.03019   7.03261
 Alpha virt. eigenvalues --    7.05826   7.09520   7.10207   7.11725   7.13615
 Alpha virt. eigenvalues --    7.15681   7.19079   7.22183   7.23473   7.24802
 Alpha virt. eigenvalues --    7.24921   7.27792   7.30183   7.30202   7.34531
 Alpha virt. eigenvalues --    7.35102   7.36037   7.38672   7.40690   7.44468
 Alpha virt. eigenvalues --    7.51024   7.53103   7.53762   7.58751   7.61586
 Alpha virt. eigenvalues --    7.65792   7.98868   8.26416   8.28032   8.28263
 Alpha virt. eigenvalues --    8.29148   8.31371   8.33085   8.34999   8.40103
 Alpha virt. eigenvalues --    8.41015   8.41917   8.42182   8.49487   8.50249
 Alpha virt. eigenvalues --    8.52931   8.55531   8.66912   8.67798   8.69841
 Alpha virt. eigenvalues --    8.72949   8.74089   8.74837   8.76414   8.76816
 Alpha virt. eigenvalues --    8.77213   8.81858   8.83761   8.85901   8.90231
 Alpha virt. eigenvalues --    8.90540   8.93274   8.97821   8.98648   8.99310
 Alpha virt. eigenvalues --    8.99387   9.03294   9.03858   9.04797   9.05719
 Alpha virt. eigenvalues --    9.09780   9.35289  22.20591  22.66181  22.82993
 Alpha virt. eigenvalues --   22.84958  22.95347  22.95667  23.08557  23.62537
 Alpha virt. eigenvalues --   43.86032  44.41870  57.17243  57.22000  57.22995
 Alpha virt. eigenvalues --   57.27341  57.37168  57.42558  57.48414  57.60248
          Condensed to atoms (all electrons):
               1          2          3          4          5          6
     1  O    7.833738   0.564466  -0.024578  -0.076822   0.006023   0.013944
     2  C    0.564466   4.682459   0.391145   0.330025  -0.154362   0.000510
     3  C   -0.024578   0.391145   4.102664  -0.016214  -0.005843   0.000240
     4  O   -0.076822   0.330025  -0.016214   7.787122   0.228473  -0.026930
     5  C    0.006023  -0.154362  -0.005843   0.228473   5.351693   0.296046
     6  C    0.013944   0.000510   0.000240  -0.026930   0.296046   4.964053
     7  C    0.013899   0.000991   0.000322  -0.027224   0.300399  -0.002061
     8  C   -0.002563   0.001948  -0.000022   0.008244  -0.043255   0.373063
     9  C   -0.002784   0.001292  -0.000056   0.008165  -0.045305   0.001704
    10  C    0.000042   0.000382   0.000017   0.000956   0.008778  -0.050981
    11  F   -0.000672   0.009292  -0.000329   0.001596  -0.060179   0.301626
    12  F   -0.000671   0.008251  -0.000179   0.001675  -0.059570   0.003711
    13  F    0.000001   0.000000   0.000000  -0.000059   0.009318  -0.044466
    14  F    0.000001   0.000006   0.000000  -0.000057   0.009395  -0.000476
    15  F   -0.000000   0.000000   0.000000  -0.000000  -0.000924   0.006448
    16  F    0.000286  -0.045899   0.355461   0.000655  -0.000371  -0.000166
    17  F    0.001637  -0.061051   0.367095   0.000317   0.000547  -0.000006
    18  F   -0.004107  -0.050727   0.374531   0.000968   0.000223  -0.000021
               7          8          9         10         11         12
     1  O    0.013899  -0.002563  -0.002784   0.000042  -0.000672  -0.000671
     2  C    0.000991   0.001948   0.001292   0.000382   0.009292   0.008251
     3  C    0.000322  -0.000022  -0.000056   0.000017  -0.000329  -0.000179
     4  O   -0.027224   0.008244   0.008165   0.000956   0.001596   0.001675
     5  C    0.300399  -0.043255  -0.045305   0.008778  -0.060179  -0.059570
     6  C   -0.002061   0.373063   0.001704  -0.050981   0.301626   0.003711
     7  C    4.958919   0.002033   0.374479  -0.052406   0.003718   0.301904
     8  C    0.002033   4.937064  -0.045916   0.382631  -0.036783  -0.000833
     9  C    0.374479  -0.045916   4.937585   0.382867  -0.000852  -0.036787
    10  C   -0.052406   0.382631   0.382867   4.950433   0.005638   0.005669
    11  F    0.003718  -0.036783  -0.000852   0.005638   8.941594  -0.000021
    12  F    0.301904  -0.000833  -0.036787   0.005669  -0.000021   8.941559
    13  F   -0.000465   0.286369   0.006573  -0.039554   0.000982   0.000000
    14  F   -0.044558   0.006582   0.286336  -0.039508   0.000000   0.000976
    15  F    0.006447  -0.041833  -0.041792   0.291222  -0.000020  -0.000020
    16  F    0.000037   0.000015   0.000004  -0.000001  -0.000010   0.000000
    17  F    0.000006  -0.000001   0.000008   0.000000  -0.000000  -0.000014
    18  F   -0.000066   0.000002   0.000002  -0.000000   0.000000   0.000000
              13         14         15         16         17         18
     1  O    0.000001   0.000001  -0.000000   0.000286   0.001637  -0.004107
     2  C    0.000000   0.000006   0.000000  -0.045899  -0.061051  -0.050727
     3  C    0.000000   0.000000   0.000000   0.355461   0.367095   0.374531
     4  O   -0.000059  -0.000057  -0.000000   0.000655   0.000317   0.000968
     5  C    0.009318   0.009395  -0.000924  -0.000371   0.000547   0.000223
     6  C   -0.044466  -0.000476   0.006448  -0.000166  -0.000006  -0.000021
     7  C   -0.000465  -0.044558   0.006447   0.000037   0.000006  -0.000066
     8  C    0.286369   0.006582  -0.041833   0.000015  -0.000001   0.000002
     9  C    0.006573   0.286336  -0.041792   0.000004   0.000008   0.000002
    10  C   -0.039554  -0.039508   0.291222  -0.000001   0.000000  -0.000000
    11  F    0.000982   0.000000  -0.000020  -0.000010  -0.000000   0.000000
    12  F    0.000000   0.000976  -0.000020   0.000000  -0.000014   0.000000
    13  F    8.947814  -0.000021   0.001055   0.000000   0.000000   0.000000
    14  F   -0.000021   8.947815   0.001058  -0.000000   0.000000   0.000000
    15  F    0.001055   0.001058   8.942641   0.000000   0.000000  -0.000000
    16  F    0.000000  -0.000000   0.000000   8.911057  -0.045323  -0.046262
    17  F    0.000000   0.000000   0.000000  -0.045323   8.917484  -0.045681
    18  F    0.000000   0.000000  -0.000000  -0.046262  -0.045681   8.898165
 Mulliken charges:
               1
     1  O   -0.321841
     2  C    0.321272
     3  C    0.455744
     4  O   -0.220889
     5  C    0.158913
     6  C    0.163760
     7  C    0.163628
     8  C    0.173254
     9  C    0.174476
    10  C    0.153814
    11  F   -0.165580
    12  F   -0.165649
    13  F   -0.167545
    14  F   -0.167549
    15  F   -0.164281
    16  F   -0.129482
    17  F   -0.135020
    18  F   -0.127026
 Sum of Mulliken charges =  -0.00000
 Mulliken charges with hydrogens summed into heavy atoms:
               1
     1  O   -0.321841
     2  C    0.321272
     3  C    0.455744
     4  O   -0.220889
     5  C    0.158913
     6  C    0.163760
     7  C    0.163628
     8  C    0.173254
     9  C    0.174476
    10  C    0.153814
    11  F   -0.165580
    12  F   -0.165649
    13  F   -0.167545
    14  F   -0.167549
    15  F   -0.164281
    16  F   -0.129482
    17  F   -0.135020
    18  F   -0.127026
 Electronic spatial extent (au):  <R**2>=           4904.6539
 Charge=             -0.0000 electrons
 Dipole moment (field-independent basis, Debye):
    X=              0.4660    Y=              0.0082    Z=             -1.5560  Tot=              1.6243
 Quadrupole moment (field-independent basis, Debye-Ang):
   XX=            -99.2901   YY=            -99.8752   ZZ=            -96.5806
   XY=              0.0523   XZ=             -0.3764   YZ=             -0.0556
 Traceless Quadrupole moment (field-independent basis, Debye-Ang):
   XX=             -0.7082   YY=             -1.2932   ZZ=              2.0014
   XY=              0.0523   XZ=             -0.3764   YZ=             -0.0556
 Octapole moment (field-independent basis, Debye-Ang**2):
  XXX=             49.1843  YYY=             -0.7889  ZZZ=             -6.3446  XYY=             18.4207
  XXY=              0.2647  XXZ=             -8.0810  XZZ=             -4.8186  YZZ=              0.7317
  YYZ=              1.6154  XYZ=             -0.0425
 Hexadecapole moment (field-independent basis, Debye-Ang**3):
 XXXX=          -4010.2417 YYYY=          -1046.5042 ZZZZ=           -280.7056 XXXY=              1.3670
 XXXZ=             -0.6613 YYYX=             -2.5181 YYYZ=             -0.1410 ZZZX=            -24.2656
 ZZZY=              0.0463 XXYY=           -846.8280 XXZZ=           -696.4389 YYZZ=           -207.5502
 XXYZ=              0.2370 YYXZ=             -1.2086 ZZXY=              2.4422
 N-N= 1.419024395654D+03 E-N=-5.803617104200D+03  KE= 1.247940788104D+03
 No NMR shielding tensors so no spin-rotation constants.
 Leave Link  601 at Mon Aug 19 18:18:28 2024, MaxMem=  8589934592 cpu:               4.4 elap:               0.2
 (Enter /share/apps/g16.b01_avx2/g16/l701.exe)
 ... and contract with generalized density number  0.
 Compute integral first derivatives.
 R6Disp: Adding Grimme-D3 dispersion energy 1st derivatives to the gradient.
   1 Symmetry operations used in ECPInt.
 ECPInt:  NShTT=   19701 NPrTT=   65376 LenC2=   16736 LenP2D=   39043.
 LDataN:  DoStor=T MaxTD1= 7 Len=  274
 D1PCM: PCM CHGder 1st derivatives, ID1Alg=3 FixD1E=F DoIter=F DoCFld=F I1PDM=0.
 GePol: Maximum number of non-zero 1st derivatives   =     208
 Leave Link  701 at Mon Aug 19 18:18:29 2024, MaxMem=  8589934592 cpu:              28.6 elap:               1.2
 (Enter /share/apps/g16.b01_avx2/g16/l702.exe)
 L702 exits ... SP integral derivatives will be done elsewhere.
 Leave Link  702 at Mon Aug 19 18:18:29 2024, MaxMem=  8589934592 cpu:               0.4 elap:               0.0
 (Enter /share/apps/g16.b01_avx2/g16/l703.exe)
 Integral derivatives from FoFJK, PRISM(SPDF).
 Compute integral first derivatives, UseDBF=F ICtDFT=           0.
 Calling FoFJK, ICntrl=      2127 FMM=F ISym2X=0 I1Cent= 0 IOpClX= 0 NMat=1 NMatS=1 NMatT=0.
 FoFJK:  IHMeth= 1 ICntrl=    2127 DoSepK=F KAlg= 0 I1Cent=           0 FoldK=F
 IRaf=         0 NMat=       1 IRICut=       1 DoRegI=T DoRafI=F ISym2E= 0 IDoP0=0 IntGTp=1.
 FoFCou: FMM=F IPFlag=           0 FMFlag=      100000 FMFlg1=         800
         NFxFlg=           0 DoJE=F BraDBF=F KetDBF=F FulRan=T
         wScrn=  0.000000 ICntrl=      2127 IOpCl=  0 I1Cent=           0 NGrid=           0
         NMat0=    1 NMatS0=      1 NMatT0=    0 NMatD0=    1 NMtDS0=    0 NMtDT0=    0
 Symmetry not used in FoFCou.
 Leave Link  703 at Mon Aug 19 18:18:57 2024, MaxMem=  8589934592 cpu:             664.3 elap:              27.7
 (Enter /share/apps/g16.b01_avx2/g16/l716.exe)
 Dipole        = 1.83352790D-01 3.20797040D-03-6.12180729D-01
 ***** Axes restored to original set *****
 -------------------------------------------------------------------
 Center     Atomic                   Forces (Hartrees/Bohr)
 Number     Number              X              Y              Z
 -------------------------------------------------------------------
      1        8           0.040655418    0.082628918    0.048861461
      2        6          -0.077211200   -0.090446408   -0.020008501
      3        6           0.004673162    0.015868894    0.004960341
      4        8           0.089644739    0.030834496   -0.056807861
      5        6          -0.044684029   -0.032479623    0.010911670
      6        6          -0.003245237   -0.006006272    0.005776027
      7        6          -0.008819943    0.000176288   -0.000027379
      8        6           0.002770380   -0.005007663    0.005515467
      9        6          -0.005922282    0.004204877   -0.003136700
     10        6          -0.004940613   -0.003093959    0.001626134
     11        9          -0.021935959    0.007102242   -0.009073116
     12        9           0.002659802   -0.019108434    0.015534563
     13        9          -0.002451361    0.017467980   -0.015182709
     14        9           0.020689514   -0.007152011    0.007932787
     15        9           0.020312912    0.011408469   -0.008167289
     16        9          -0.018131950    0.010699446   -0.011786484
     17        9           0.006088444   -0.020189269   -0.007677227
     18        9          -0.000151798    0.003092029    0.030748816
 -------------------------------------------------------------------
 Cartesian Forces:  Max     0.090446408 RMS     0.029305253
 Leave Link  716 at Mon Aug 19 18:18:57 2024, MaxMem=  8589934592 cpu:               0.6 elap:               0.0
 (Enter /share/apps/g16.b01_avx2/g16/l103.exe)

 GradGradGradGradGradGradGradGradGradGradGradGradGradGradGradGradGradGrad
 Berny optimization.
 FormGI is forming the generalized inverse of G from B-inverse, IUseBI=4.
 Internal  Forces:  Max     0.104195910 RMS     0.018070667
 Search for a local minimum.
 Step number   1 out of a maximum of   90
 All quantities printed in internal units (Hartrees-Bohrs-Radians)
 RMS Force = .18071D-01 SwitMx=.10000D-02 MixMth= 1
 Mixed Optimization -- RFO/linear search
 Second derivative matrix not updated -- first step.
 ITU=  0
     Eigenvalues ---    0.00237   0.00501   0.01295   0.02070   0.02070
     Eigenvalues ---    0.02070   0.02070   0.02070   0.02070   0.02070
     Eigenvalues ---    0.02070   0.02239   0.02997   0.11243   0.11243
     Eigenvalues ---    0.25000   0.25000   0.25000   0.25000   0.25000
     Eigenvalues ---    0.25000   0.25000   0.25000   0.25000   0.25000
     Eigenvalues ---    0.25000   0.25000   0.25000   0.25000   0.25000
     Eigenvalues ---    0.28519   0.40989   0.41797   0.41797   0.45389
     Eigenvalues ---    0.45389   0.45389   0.45389   0.55021   0.55021
     Eigenvalues ---    0.55021   0.55021   0.55021   0.55021   0.55021
     Eigenvalues ---    0.55021   0.66833   0.80209
 RFO step:  Lambda=-4.38939638D-02 EMin= 2.36824221D-03
 Linear search not attempted -- first point.
 Iteration  1 RMS(Cart)=  0.05346520 RMS(Int)=  0.00103447
 Iteration  2 RMS(Cart)=  0.00118331 RMS(Int)=  0.00006208
 Iteration  3 RMS(Cart)=  0.00000393 RMS(Int)=  0.00006206
 Iteration  4 RMS(Cart)=  0.00000000 RMS(Int)=  0.00006206
 ITry= 1 IFail=0 DXMaxC= 1.49D-01 DCOld= 1.00D+10 DXMaxT= 3.00D-01 DXLimC= 3.00D+00 Rises=F
 Variable       Old X    -DE/DX   Delta X   Delta X   Delta X     New X
                                 (Linear)    (Quad)   (Total)
    R1        2.37803  -0.10420   0.00000  -0.12317  -0.12317   2.25487
    R2        2.91018  -0.00733   0.00000  -0.02227  -0.02227   2.88790
    R3        2.70231  -0.05784   0.00000  -0.12746  -0.12746   2.57485
    R4        2.55113  -0.02403   0.00000  -0.04044  -0.04044   2.51069
    R5        2.55113  -0.02165   0.00000  -0.03644  -0.03644   2.51469
    R6        2.55113  -0.03086   0.00000  -0.05195  -0.05195   2.49918
    R7        2.45910   0.05630   0.00000   0.07905   0.07905   2.53815
    R8        2.64826  -0.01186   0.00000  -0.02335  -0.02333   2.62493
    R9        2.64826  -0.01191   0.00000  -0.02345  -0.02343   2.62483
   R10        2.64826  -0.01854   0.00000  -0.03725  -0.03725   2.61101
   R11        2.55113  -0.02475   0.00000  -0.04166  -0.04166   2.50947
   R12        2.64826  -0.01852   0.00000  -0.03721  -0.03721   2.61105
   R13        2.55113  -0.02474   0.00000  -0.04165  -0.04165   2.50948
   R14        2.64826  -0.01808   0.00000  -0.03680  -0.03682   2.61145
   R15        2.55113  -0.02326   0.00000  -0.03916  -0.03916   2.51197
   R16        2.64826  -0.01808   0.00000  -0.03681  -0.03683   2.61143
   R17        2.55113  -0.02328   0.00000  -0.03918  -0.03918   2.51195
   R18        2.55113  -0.02469   0.00000  -0.04155  -0.04155   2.50958
    A1        2.09440   0.01206   0.00000   0.04103   0.04098   2.13538
    A2        2.09440   0.01952   0.00000   0.06641   0.06636   2.16075
    A3        2.09440  -0.03158   0.00000  -0.10744  -0.10749   1.98691
    A4        1.91063   0.00141   0.00000   0.00357   0.00342   1.91406
    A5        1.91063   0.01071   0.00000   0.03940   0.03921   1.94984
    A6        1.91063  -0.00028   0.00000  -0.00270  -0.00278   1.90786
    A7        1.91063  -0.00461   0.00000  -0.01221  -0.01246   1.89817
    A8        1.91063  -0.00305   0.00000  -0.01633  -0.01636   1.89428
    A9        1.91063  -0.00418   0.00000  -0.01174  -0.01186   1.89877
   A10        2.09440  -0.01690   0.00000  -0.05749  -0.05749   2.03690
   A11        2.09440   0.00428   0.00000   0.01374   0.01367   2.10807
   A12        2.09440   0.00395   0.00000   0.01260   0.01253   2.10693
   A13        2.09440  -0.00823   0.00000  -0.02634  -0.02634   2.06806
   A14        2.09440   0.00432   0.00000   0.01554   0.01557   2.10996
   A15        2.09440  -0.00307   0.00000  -0.01085  -0.01086   2.08353
   A16        2.09440  -0.00126   0.00000  -0.00469  -0.00470   2.08969
   A17        2.09440   0.00429   0.00000   0.01543   0.01545   2.10984
   A18        2.09440  -0.00303   0.00000  -0.01071  -0.01073   2.08367
   A19        2.09440  -0.00126   0.00000  -0.00471  -0.00472   2.08967
   A20        2.09440  -0.00052   0.00000  -0.00261  -0.00262   2.09177
   A21        2.09440   0.00108   0.00000   0.00409   0.00409   2.09849
   A22        2.09440  -0.00056   0.00000  -0.00148  -0.00147   2.09292
   A23        2.09440  -0.00048   0.00000  -0.00248  -0.00250   2.09190
   A24        2.09440   0.00104   0.00000   0.00396   0.00397   2.09836
   A25        2.09440  -0.00056   0.00000  -0.00148  -0.00147   2.09292
   A26        2.09440   0.00063   0.00000   0.00046   0.00043   2.09482
   A27        2.09440  -0.00031   0.00000  -0.00023  -0.00021   2.09418
   A28        2.09440  -0.00031   0.00000  -0.00023  -0.00022   2.09418
    D1       -1.57080   0.00212   0.00000   0.02095   0.02100  -1.54980
    D2        2.61799   0.00035   0.00000   0.00958   0.00950   2.62749
    D3        0.52360  -0.00092   0.00000   0.00148   0.00140   0.52500
    D4        1.57080   0.00125   0.00000   0.00300   0.00313   1.57392
    D5       -0.52360  -0.00053   0.00000  -0.00836  -0.00838  -0.53197
    D6       -2.61799  -0.00180   0.00000  -0.01647  -0.01647  -2.63446
    D7        0.00000  -0.00019   0.00000  -0.00461  -0.00472  -0.00472
    D8       -3.14159   0.00069   0.00000   0.01333   0.01344  -3.12815
    D9        1.57080   0.00045   0.00000   0.00704   0.00721   1.57801
   D10       -1.57080  -0.00069   0.00000  -0.01029  -0.01046  -1.58126
   D11        3.14159  -0.00145   0.00000  -0.02227  -0.02224   3.11935
   D12       -0.00000  -0.00147   0.00000  -0.02255  -0.02250  -0.02250
   D13       -0.00000  -0.00031   0.00000  -0.00493  -0.00495  -0.00495
   D14        3.14159  -0.00032   0.00000  -0.00521  -0.00521   3.13638
   D15       -3.14159   0.00147   0.00000   0.02248   0.02244  -3.11915
   D16       -0.00000   0.00145   0.00000   0.02222   0.02217   0.02217
   D17        0.00000   0.00032   0.00000   0.00515   0.00516   0.00516
   D18        3.14159   0.00030   0.00000   0.00489   0.00489  -3.13670
   D19        0.00000   0.00014   0.00000   0.00219   0.00224   0.00224
   D20       -3.14159   0.00017   0.00000   0.00270   0.00274  -3.13885
   D21       -3.14159   0.00016   0.00000   0.00247   0.00250  -3.13909
   D22        0.00000   0.00019   0.00000   0.00298   0.00300   0.00301
   D23        0.00000  -0.00016   0.00000  -0.00261  -0.00266  -0.00266
   D24        3.14159  -0.00020   0.00000  -0.00314  -0.00318   3.13841
   D25       -3.14159  -0.00015   0.00000  -0.00235  -0.00239   3.13921
   D26        0.00000  -0.00018   0.00000  -0.00289  -0.00291  -0.00291
   D27        0.00000   0.00002   0.00000   0.00035   0.00038   0.00038
   D28       -3.14159   0.00013   0.00000   0.00197   0.00196  -3.13963
   D29       -3.14159  -0.00002   0.00000  -0.00017  -0.00012   3.14147
   D30        0.00000   0.00009   0.00000   0.00145   0.00146   0.00146
   D31       -0.00000  -0.00001   0.00000  -0.00014  -0.00017  -0.00017
   D32        3.14159  -0.00011   0.00000  -0.00176  -0.00175   3.13984
   D33        3.14159   0.00003   0.00000   0.00039   0.00035  -3.14124
   D34       -0.00000  -0.00008   0.00000  -0.00123  -0.00124  -0.00124
         Item               Value     Threshold  Converged?
 Maximum Force            0.104196     0.000450     NO 
 RMS     Force            0.018071     0.000300     NO 
 Maximum Displacement     0.149270     0.001800     NO 
 RMS     Displacement     0.053937     0.001200     NO 
 Predicted change in Energy=-2.385665D-02
 Lowest energy point so far.  Saving SCF results.
 GradGradGradGradGradGradGradGradGradGradGradGradGradGradGradGradGradGrad

 Leave Link  103 at Mon Aug 19 18:18:57 2024, MaxMem=  8589934592 cpu:               1.4 elap:               0.1
 (Enter /share/apps/g16.b01_avx2/g16/l202.exe)
                          Input orientation:                          
 ---------------------------------------------------------------------
 Center     Atomic      Atomic             Coordinates (Angstroms)
 Number     Number       Type             X           Y           Z
 ---------------------------------------------------------------------
      1          8           0        0.721368   -0.157380   -3.072464
      2          6           0        1.146227    0.796450   -2.494982
      3          6           0        2.406472    1.532468   -2.948297
      4          8           0        0.578806    1.316850   -1.370810
      5          6           0       -0.524441    0.703346   -0.912049
      6          6           0       -0.431165   -0.330989    0.010403
      7          6           0       -1.785989    1.103174   -1.333894
      8          6           0       -1.565807   -0.946186    0.503532
      9          6           0       -2.924334    0.492026   -0.844219
     10          6           0       -2.813230   -0.533465    0.075402
     11          9           0        0.766462   -0.731402    0.421290
     12          9           0       -1.895599    2.086546   -2.219585
     13          9           0       -1.461458   -1.932735    1.388300
     14          9           0       -4.125327    0.887559   -1.254247
     15          9           0       -3.905693   -1.121338    0.549259
     16          9           0        3.474046    0.983698   -2.378813
     17          9           0        2.365640    2.823025   -2.626426
     18          9           0        2.527865    1.424377   -4.260779
 ---------------------------------------------------------------------
                    Distance matrix (angstroms):
                    1          2          3          4          5
     1  O    0.000000
     2  C    1.193224   0.000000
     3  C    2.389682   1.528213   0.000000
     4  O    2.255950   1.362552   2.423906   0.000000
     5  C    2.638235   2.303362   3.663877   1.343132   0.000000
     6  C    3.295837   3.168002   4.503172   2.375534   1.389053
     7  C    3.301282   3.168611   4.513016   2.374716   1.388999
     8  C    4.317537   4.402612   5.817030   3.637836   2.410242
     9  C    4.321799   4.403085   5.824702   3.637255   2.410134
    10  C    4.748040   4.904370   6.376215   4.125664   2.782681
    11  F    3.540883   3.314090   4.378225   2.728035   2.345789
    12  F    3.551214   3.315554   4.398390   2.726817   2.345840
    13  F    5.273995   5.415565   6.765692   4.726009   3.621951
    14  F    5.280933   5.416364   6.778650   4.725118   3.621797
    15  F    5.954476   6.202194   7.688889   5.453637   4.110689
    16  F    3.059486   2.338226   1.328600   3.083744   4.268243
    17  F    3.432987   2.368809   1.330716   2.652906   3.972996
    18  F    2.679082   2.328359   1.322509   3.487451   4.588077
                    6          7          8          9         10
     6  C    0.000000
     7  C    2.387364   0.000000
     8  C    1.381686   2.761248   0.000000
     9  C    2.761091   1.381707   2.393842   0.000000
    10  C    2.391538   2.391637   1.381918   1.381911   0.000000
    11  F    1.327957   3.600187   2.343582   4.089042   3.601807
    12  F    3.600262   1.327962   4.089204   2.343592   3.601870
    13  F    2.350679   4.090526   1.329279   3.606052   2.347114
    14  F    4.090358   2.350603   3.606043   1.329268   2.347099
    15  F    3.603799   3.603869   2.346878   2.346868   1.328011
    16  F    4.763132   5.364150   6.118209   6.598181   6.917716
    17  F    4.972202   4.675954   6.281708   6.049269   6.736957
    18  F    5.484539   5.222946   6.713894   6.501434   7.152825
                   11         12         13         14         15
    11  F    0.000000
    12  F    4.690589   0.000000
    13  F    2.709601   5.418480   0.000000
    14  F    5.418308   2.709452   4.693965   0.000000
    15  F    4.690145   4.690149   2.708623   2.708605   0.000000
    16  F    4.255956   5.484043   6.859732   7.682731   8.213729
    17  F    4.947717   4.343510   7.306296   6.910973   8.060558
    18  F    5.447173   4.916501   7.687457   7.320681   8.426613
                   16         17         18
    16  F    0.000000
    17  F    2.161713   0.000000
    18  F    2.152035   2.157231   0.000000
 Stoichiometry    C8F8O2
 Framework group  C1[X(C8F8O2)]
 Deg. of freedom    48
 Full point group                 C1      NOp   1
 RotChk:  IX=0 Diff= 2.86D-03
 Largest Abelian subgroup         C1      NOp   1
 Largest concise Abelian subgroup C1      NOp   1
                         Standard orientation:                         
 ---------------------------------------------------------------------
 Center     Atomic      Atomic             Coordinates (Angstroms)
 Number     Number       Type             X           Y           Z
 ---------------------------------------------------------------------
      1          8           0        1.537755   -0.004429    1.536595
      2          6           0        1.905875   -0.014231    0.401618
      3          6           0        3.386146   -0.003435    0.021989
      4          8           0        1.062770   -0.013544   -0.668765
      5          6           0       -0.253286   -0.006640   -0.400529
      6          6           0       -0.946056    1.190294   -0.270575
      7          6           0       -0.956528   -1.197046   -0.267477
      8          6           0       -2.304898    1.199914   -0.020552
      9          6           0       -2.315465   -1.193903   -0.017688
     10          6           0       -2.989513    0.006150    0.105645
     11          9           0       -0.290004    2.338832   -0.388576
     12          9           0       -0.310824   -2.351707   -0.382823
     13          9           0       -2.955458    2.353005    0.098341
     14          9           0       -2.976215   -2.340911    0.103701
     15          9           0       -4.295992    0.012196    0.343738
     16          9           0        3.812824    1.250755   -0.078653
     17          9           0        3.602131   -0.623099   -1.135669
     18          9           0        4.084444   -0.610498    0.966916
 ---------------------------------------------------------------------
 Rotational constants (GHZ):           0.7991595           0.2379193           0.1978861
 Leave Link  202 at Mon Aug 19 18:18:57 2024, MaxMem=  8589934592 cpu:               0.0 elap:               0.0
 (Enter /share/apps/g16.b01_avx2/g16/l301.exe)
 Standard basis: def2TZVP (5D, 7F)
 Ernie: Thresh=  0.10000D-02 Tol=  0.10000D-05 Strict=F.
 There are   648 symmetry adapted cartesian basis functions of A   symmetry.
 There are   558 symmetry adapted basis functions of A   symmetry.
   558 basis functions,   918 primitive gaussians,   648 cartesian basis functions
    68 alpha electrons       68 beta electrons
       nuclear repulsion energy      1441.4586109058 Hartrees.
 IExCor= 1009 DFT=T Ex+Corr=PBE1PBE ExCW=0 ScaHFX=  0.250000
 ScaDFX=  0.750000  0.750000  1.000000  1.000000 ScalE2=  1.000000  1.000000
 IRadAn=  99590 IRanWt=     -1 IRanGd=            0 ICorTp=0 IEmpDi=131
 NAtoms=   18 NActive=   18 NUniq=   18 SFac= 1.00D+00 NAtFMM=   60 NAOKFM=F Big=F
 Integral buffers will be    131072 words long.
 Raffenetti 2 integral format.
 Two-electron integral symmetry is turned on.
 R6Disp:  Grimme-D3 Dispersion energy=       -0.0094656752 Hartrees.
 Nuclear repulsion after empirical dispersion term =     1441.4491452306 Hartrees.
 ------------------------------------------------------------------------------
 Polarizable Continuum Model (PCM)
 =================================
 Model                : PCM.
 Atomic radii         : UFF (Universal Force Field).
 Polarization charges : Total charges.
 Charge compensation  : None.
 Solution method      : On-the-fly selection.
 Cavity type          : Scaled VdW (van der Waals Surface) (Alpha=1.100).
 Cavity algorithm     : GePol (No added spheres)
                        Default sphere list used, NSphG=   18.
                        Lebedev-Laikov grids with approx.  5.0 points / Ang**2.
                        Smoothing algorithm: York/Karplus (Gamma=1.0000).
                        Polarization charges: spherical gaussians, with
                                              point-specific exponents (IZeta= 3).
                        Self-potential: point-specific (ISelfS= 7).
                        Self-field    : sphere-specific E.n sum rule (ISelfD= 2).
 1st derivatives      : Analytical E(r).r(x)/FMM algorithm (CHGder, D1EAlg=3).
                        Cavity 1st derivative terms included.
 Solvent              : Water, Eps=  78.355300 Eps(inf)=   1.777849
 ------------------------------------------------------------------------------
 Spheres list:
 ISph  on   Nord     Re0    Alpha      Xe            Ye            Ze
    1   O      1    1.7500  1.100      1.537755     -0.004429      1.536595
    2   C      2    1.9255  1.100      1.905875     -0.014231      0.401618
    3   C      3    1.9255  1.100      3.386146     -0.003435      0.021989
    4   O      4    1.7500  1.100      1.062770     -0.013544     -0.668765
    5   C      5    1.9255  1.100     -0.253286     -0.006640     -0.400529
[...]
 85094,0.5991499,-0.0112829,-0.0773869,0.0704879,-0.1114802,1.1113116,-
 0.773694,0.0924568,-0.7500702,0.6484691,1.4288171,-0.599441,0.2552639,
 -0.5349973,0.2384949,-0.0528888,0.2518552,-0.042638,0.0810904,1.230041
 9,0.5052542,-0.5465464,0.5233215,0.4412987,-0.3333776,-0.5308067,-0.31
 92558,0.4119799,-1.2591053,0.4458326,-0.2420268,0.4277361,-0.3487025,0
 .1685008,-0.1858018,0.1519366,-0.1985422,-0.2288852,0.1140411,-0.05763
 94,0.158975,-1.0204699,0.6519826,-0.108932,0.6852882,-0.5701572,-0.214
 0213,0.1111611,-0.0627645,0.0714185,-1.0240029,0.7288911,-0.0370747,0.
 6905091,-0.6157966,-1.3594913,0.4727768,-0.1581847,0.4792868,-0.346776
 5,0.1334193,-0.2053024,0.1418988,-0.1592822,-1.1297254,-0.4514155,0.50
 38,-0.4790713,-0.402232,0.3177518,0.4846455,0.2914246,-0.3768419,-0.77
 01,-0.1468187,-0.3380312,-0.1627499,-0.3921786,-0.0720186,-0.3245673,-
 0.055014,-0.7620721,-0.4753953,0.0892813,-0.0203241,0.1154345,-1.01046
 9,0.265754,-0.027792,0.2590949,-0.4276437,-0.6665763,0.1422234,0.38607
 18,0.1013118,-0.4723587,-0.1879791,0.3596799,-0.2212782,-0.7812594\Pol
 ar=147.1505501,-0.0945855,119.664073,-16.1942969,-23.9612406,107.43750
 12\Quadrupole=-1.1737451,-0.3089763,1.4827214,0.7228188,1.6411512,0.81
 67074\PG=C01 [X(C8F8O2)]\NImag=0\\0.11391191,0.17430533,0.74488629,0.0
 4314522,0.32407816,0.20549465,-0.14373751,-0.17786526,-0.05794322,0.49
 201838,-0.16246916,-0.66369095,-0.25224615,0.20507059,0.88831620,-0.04
 748190,-0.24010010,-0.18968660,-0.08586380,0.26442238,0.46466044,0.014
 31750,-0.00338440,0.00342218,-0.15493757,-0.05056018,0.03420214,0.5599
 9115,-0.02111407,-0.02000315,-0.00936138,-0.05822769,-0.09154880,0.035
 05721,0.02861018,0.54067024,-0.00806945,-0.02329637,0.01189829,0.02826
 039,0.02853215,-0.07662096,-0.04177866,0.01148884,0.52805373,0.0251103
 5,0.02915884,0.02095780,-0.13366289,0.00969204,0.06962589,-0.00669303,
 0.02028737,0.02481955,0.37965974,0.02188769,-0.04515757,-0.06433141,0.
 01771775,-0.12719895,-0.05809095,-0.00585191,0.00897822,0.00606074,0.0
 6525758,0.29665585,0.01540120,-0.07218574,-0.03252006,0.07509486,-0.05
 017207,-0.15098904,0.00700640,-0.01554437,-0.00987413,-0.20553428,0.06
 491916,0.28555480,0.00271993,-0.01312834,-0.01423073,-0.05164098,0.008
 16353,0.04443904,-0.00181834,-0.00020216,0.00528612,-0.18970510,-0.067
 53919,0.05861900,0.70672603,0.00268050,-0.00957514,-0.00555360,0.00322
 591,0.02441342,0.01405519,-0.00259271,-0.00226460,-0.00304642,-0.07838
 142,-0.12883440,0.04286842,-0.05709093,0.51717609,-0.00352760,0.007540
 60,0.00344170,0.04040594,0.00937856,-0.02774846,0.00374784,-0.00392860
 ,-0.00086351,0.05177596,0.03470901,-0.08248218,-0.04272942,-0.26768975
 ,0.35307312,-0.00031083,0.00604118,0.00231876,0.00454368,-0.01331616,-
 0.00509453,0.00151910,0.00179994,-0.00061713,-0.01644053,-0.03186517,0
 .03372828,-0.11544294,0.05736497,-0.03727473,0.73378944,0.00071618,-0.
 00153050,-0.00052441,0.00175920,0.00179233,0.00014021,-0.00090772,-0.0
 0096862,0.00008253,-0.00916457,-0.01484444,0.01550168,-0.02081438,-0.2
 3808103,0.13546396,-0.03353732,0.51881006,0.00074201,0.00017522,0.0001
 2177,-0.00042449,0.00147900,-0.00133953,0.00061787,0.00073504,-0.00003
 161,0.00602359,0.01558847,-0.00704136,0.02299054,0.12773805,-0.1576248
 0,-0.04378961,-0.28486545,0.34901601,0.00181871,0.00167062,-0.00026026
 ,0.00001023,-0.00370768,-0.00559444,-0.00028729,-0.00047229,0.00057663
 ,-0.04567420,0.00307806,0.00634483,-0.30145524,0.04250046,0.00102030,0
 .03433151,0.07617896,-0.06024521,0.72619952,-0.00032606,0.00415829,0.0
 0184763,0.00036699,-0.00816308,-0.00623485,0.00249733,0.00232769,0.000
 01201,-0.02957920,0.00977612,0.00849280,0.12021861,-0.12626452,0.03328
 207,0.02781622,-0.01131269,0.00604770,-0.03559326,0.52286931,0.0000337
 8,-0.00151841,-0.00124595,0.00185838,0.00376317,0.00365569,-0.00156110
 ,-0.00142297,-0.00024169,0.02535524,-0.00262847,0.00146107,-0.05957534
 ,0.04397882,-0.08666573,-0.02453630,0.00125147,0.00335986,-0.04412120,
 -0.28866785,0.35379059,0.00076727,0.00025156,-0.00049392,-0.00082616,0
 .00019314,0.00037552,-0.00014829,-0.00008370,0.00001665,-0.00048797,0.
 00425934,-0.00415707,0.05365394,-0.06512656,0.04404639,-0.25639228,-0.
 03512499,0.04862011,-0.07979042,-0.00279468,0.01253027,0.72652595,0.00
 076321,-0.00042099,-0.00101703,-0.00181015,0.00010648,0.00190798,-0.00
 098044,-0.00056155,0.00032622,0.00413264,0.00018197,0.00200015,-0.0182
 9515,-0.01587709,0.01577948,-0.11817529,-0.13623767,0.06849102,-0.0027
 0873,-0.00087155,0.00621316,-0.03336389,0.52612450,-0.00043347,0.00064
 298,0.00062813,0.00096336,-0.00172957,-0.00094799,0.00071183,0.0006319
 2,-0.00021380,-0.00313816,0.00352544,0.00313315,0.00848820,0.02138775,
 -0.01507363,0.11070751,0.05863432,-0.11927022,0.01205246,0.00673490,0.
 00150951,-0.04559335,-0.29410973,0.34957094,0.00017172,-0.00130080,-0.
 00114062,-0.00275415,0.00215082,0.00309293,-0.00097033,-0.00075596,0.0
 0050490,0.00387743,0.00237442,-0.00286006,-0.05374268,0.01556066,-0.00
 561432,-0.01888388,-0.02234158,0.01957014,-0.25956623,-0.11575415,0.10
 877886,0.03420876,0.02757614,-0.02428529,0.73687429,-0.00080047,-0.000
 53190,0.00034478,0.00020872,0.00104621,0.00133791,0.00017519,0.0003083
 4,-0.00027182,0.00538129,-0.00132579,0.00255007,-0.03154765,0.04916121
 ,-0.03222822,-0.02224060,-0.03822565,0.03650104,-0.03264208,-0.1323244
 7,0.05573824,0.07331555,-0.01139640,0.00001839,-0.03824710,0.51919195,
 0.00063604,0.00011863,0.00001236,-0.00140123,-0.00070338,-0.00092806,-
 0.00010871,0.00004188,0.00030952,-0.00248409,0.00385472,0.00241004,0.0
 2987583,-0.03706552,0.02700445,0.02000944,0.03690170,-0.02210609,0.047
 64885,0.06554438,-0.11776464,-0.05888351,0.00560211,0.00316105,-0.0436
 7142,-0.28863923,0.34597451,-0.00012183,-0.00156216,-0.00113301,-0.001
 48613,0.00277109,0.00325667,-0.00099685,-0.00088675,0.00040067,0.00452
 896,0.00033833,-0.00314214,-0.02835819,0.03020325,-0.01916176,-0.05809
 518,-0.03216683,0.03079263,0.05681059,-0.01991273,0.00809557,-0.295779
 92,0.12378983,-0.06449491,-0.11307955,-0.01887112,0.02021107,0.7333243
 6,0.00051503,-0.00053903,-0.00063491,-0.00060577,0.00121340,0.00079724
 ,-0.00057759,-0.00052702,0.00014979,0.00134600,-0.00072566,-0.00303348
 ,0.03042879,-0.03411948,0.02806029,0.01704177,0.05188791,-0.04050635,-
 0.06923368,-0.01905243,0.02245381,0.04030593,-0.12709727,0.04434780,0.
 06477045,-0.24058444,0.12560952,-0.03135426,0.52263764,-0.00073369,0.0
 0040562,0.00067471,0.00122580,-0.00051487,-0.00108887,0.00063456,0.000
 36049,-0.00019454,-0.00184896,-0.00171287,-0.00032773,-0.01877201,0.02
 711294,-0.01114725,-0.00604645,-0.03498189,0.02630819,0.04461074,0.016
 17493,-0.01775854,-0.00198355,0.03438359,-0.08614273,-0.04201312,0.135
 70607,-0.15721408,-0.04813526,-0.28857023,0.35015730,-0.00023911,-0.00
 340237,-0.00007939,-0.00116964,0.00555699,0.00204100,-0.00071723,-0.00
 062430,-0.00012461,0.00877116,-0.00146059,-0.00211140,-0.02430156,0.01
 076745,-0.00530479,-0.31613585,0.10214956,-0.04517349,-0.00212675,-0.0
 0402522,0.00365345,-0.05815915,0.02912446,-0.01410650,0.00655768,0.000
 20034,-0.00118111,0.00667677,-0.00450887,0.00311475,0.38833996,-0.0002
 8423,0.00103434,0.00033969,0.00101258,-0.00153746,-0.00163439,0.000600
 53,0.00030352,-0.00007910,-0.00071558,0.00135865,-0.00376458,0.0450742
 9,-0.01314177,0.01081021,0.10204648,-0.10294575,0.03766108,-0.00557336
 ,0.00017142,0.00387703,-0.00719832,0.00760451,0.00173693,-0.00152346,0
 .00086317,-0.00263108,-0.00122389,-0.00275610,0.00575649,-0.13616954,0
 .10750538,-0.00060406,0.00045403,-0.00130148,0.00011315,0.00077810,0.0
 0026860,-0.00049937,-0.00066498,0.00022718,-0.00075256,-0.00446297,-0.
 00259929,-0.03026447,0.01345976,0.00038917,-0.04481016,0.03723428,-0.0
 6025649,0.00471450,0.00370564,0.00139336,0.01268656,-0.00224746,0.0093
 1186,0.00018528,-0.00264348,-0.00081798,0.00080688,0.00603222,0.000280
 90,0.06056226,-0.04787161,0.05341019,-0.00012891,0.00019705,0.00046955
 ,0.00067873,-0.00025524,-0.00077978,0.00025856,0.00017551,-0.00020952,
 0.00371837,0.00115129,-0.00111583,-0.00069678,0.03744999,-0.02730539,-
 0.00663048,-0.00422872,0.00438898,-0.07744202,0.02639514,-0.01495255,0
 .00308517,-0.00045907,-0.00035779,0.00721493,-0.02786540,0.02105573,-0
 .00798326,0.00351672,-0.00100914,-0.00081962,0.00246988,-0.00160124,0.
 07212856,0.00023358,-0.00111437,-0.00079530,-0.00070128,0.00240635,0.0
 0132223,-0.00084620,-0.00118505,0.00037516,0.00099365,0.00112418,-0.00
 647082,0.00339905,-0.02711831,0.02594178,-0.00253156,0.00314487,0.0014
 4956,0.02703742,-0.25072666,0.15653960,0.00128623,0.00306815,-0.004566
 58,0.00823611,-0.03268653,0.03046266,0.00024754,0.00638518,-0.00113473
 ,0.00336991,-0.00203263,0.00176230,-0.03570086,0.30322184,-0.00054422,
 0.00061502,0.00068185,0.00169583,-0.00104083,-0.00154795,0.00075482,0.
 00065862,-0.00035763,-0.00183637,-0.00494133,-0.00058667,-0.00284281,0
 .02147424,-0.00764257,0.00327270,0.00141205,0.00279663,-0.01514428,0.1
 5637719,-0.15297627,-0.00168859,-0.00434548,0.00059289,-0.00581451,0.0
 3472696,-0.01620972,0.00133809,-0.00161687,0.00580987,-0.00231200,0.00
 184894,-0.00030639,0.02071102,-0.20566992,0.17468309,0.00003778,0.0001
 9447,0.00018671,0.00020796,-0.00050537,-0.00054345,0.00008831,0.000124
 98,-0.00006839,0.00000496,-0.00134976,0.00169008,-0.00756314,0.0031064
 9,-0.00104363,0.00694947,-0.02782668,0.02097443,0.00288387,-0.00051546
 ,-0.00036178,-0.07612058,0.02608372,-0.01457277,-0.00656190,-0.0040851
 9,0.00436480,-0.00017190,0.03743717,-0.02691408,0.00687476,-0.00171039
 ,-0.00015793,0.00000782,0.00084405,-0.00050836,0.06871694,-0.00026126,
 0.00129446,0.00137054,0.00174367,-0.00253831,-0.00328018,0.00109038,0.
 00090686,-0.00041079,-0.00321989,-0.00086165,0.00421320,0.00101264,0.0
 0399924,-0.00007166,0.00856889,-0.03105041,0.02822566,-0.00089383,0.00
 282290,-0.00416191,0.02624189,-0.25187875,0.15789667,-0.00207164,0.004
 74831,0.00013673,0.00053216,-0.02984159,0.02836715,-0.00436843,0.00378
 494,-0.00649237,0.00093169,-0.00646540,0.00548544,-0.03409512,0.303869
 59,0.00023732,-0.00105339,-0.00096061,-0.00156528,0.00191560,0.0026448
 3,-0.00084503,-0.00061929,0.00028758,0.00268237,0.00142578,-0.00273193
 ,0.00065165,-0.00007193,0.00464394,-0.00627401,0.03254988,-0.01522543,
 -0.00004430,-0.00424399,0.00017097,-0.01473276,0.15801832,-0.15188859,
 0.00286690,0.00039129,0.00382482,0.00064654,0.02386244,-0.00962939,0.0
 0185229,-0.00687178,-0.00071065,-0.00057851,0.00546866,-0.00303443,0.0
 1978442,-0.20591931,0.17315522,-0.00031341,0.00169796,0.00156418,0.001
 84967,-0.00328065,-0.00426702,0.00140902,0.00109286,-0.00035373,-0.006
 36976,0.00116493,0.00349038,0.00431979,-0.00271434,0.00194795,0.005203
 75,-0.00153982,0.00020634,-0.05511892,0.02870891,-0.01388616,0.0002940
 3,-0.00443353,0.00365924,-0.31812505,0.10445533,-0.04452266,-0.0288680
 1,0.00970658,-0.00288976,-0.00867234,0.00363905,-0.00162042,0.00660988
 ,-0.00439221,0.00174625,-0.00096789,0.00338050,-0.00232956,0.38943551,
 0.00025144,-0.00027709,-0.00048879,-0.00076194,0.00040348,0.00088237,-
 0.00035306,-0.00026989,0.00018230,0.00037570,0.00079725,-0.00066850,-0
 .00050104,-0.00301982,0.00567514,-0.00129060,0.00132658,-0.00293892,-0
 .00775970,0.00723321,0.00170096,-0.00633205,0.00048095,0.00383675,0.10
 429869,-0.10281589,0.03757619,0.04683251,-0.01229002,0.00978599,0.0036
 3668,-0.00104495,0.00105785,-0.00176893,0.00396469,-0.00694855,0.00248
 169,-0.00228811,0.00181904,-0.13767918,0.10647969,-0.00003605,-0.00000
 905,0.00005063,0.00018287,-0.00002778,0.00001368,0.00005674,0.00009712
 ,-0.00007339,0.00058624,-0.00014843,0.00066087,0.00050471,0.00586510,-
 0.00008425,-0.00008786,-0.00298754,-0.00066111,0.01332813,-0.00247720,
 0.00864876,0.00517270,0.00354809,0.00125064,-0.04437775,0.03764866,-0.
 05839328,-0.03034333,0.01408850,0.00142507,-0.00160036,0.00110622,0.00
 031148,-0.00016333,-0.00670209,-0.00053209,-0.00166037,0.00171384,-0.0
 0050621,0.05922187,-0.04657523,0.04949560,-0.00043543,0.00179399,0.001
 46359,0.00257900,-0.00317358,-0.00355831,0.00136585,0.00111923,-0.0005
 2895,-0.00652051,-0.00130521,0.00415242,0.00232894,-0.00053455,0.00007
 190,0.00432183,0.00596599,-0.00455286,-0.00090447,0.00501832,-0.002868
 41,-0.05095608,-0.03211888,0.03112456,-0.01626410,-0.00715870,0.008393
 03,-0.26753216,-0.09941270,0.10132556,-0.00576722,0.00003166,0.0006297
 8,0.00023045,-0.00259100,0.00194540,0.00574489,0.00259670,-0.00321466,
 0.01072344,-0.00178659,-0.00068972,0.32254851,-0.00019879,0.00100949,0
 .00072938,0.00126750,-0.00185952,-0.00181726,0.00070744,0.00059954,-0.
 00025100,-0.00349832,-0.00018733,0.00259324,-0.00050027,0.00086773,-0.
 00248373,0.00306388,-0.00238597,0.00481494,0.00791011,0.00116405,0.001
 85050,0.00412317,0.00623402,0.00147846,-0.04354147,-0.01526275,0.02317
 729,-0.09938580,-0.11495629,0.06920012,-0.00060144,0.00107377,-0.00051
 056,-0.00189036,-0.00271801,0.00246491,-0.00012354,0.00416337,-0.00714
 035,0.00105015,0.00109194,-0.00509071,0.13238891,0.12159803,0.00033586
 ,-0.00086493,-0.00077010,-0.00146064,0.00143174,0.00178941,-0.00071964
 ,-0.00052408,0.00026831,0.00345333,0.00108868,-0.00129800,-0.00004530,
 -0.00242478,-0.00097105,-0.00231685,0.00453098,0.00172425,-0.00501210,
 0.00220891,0.00362414,0.00409374,0.00584027,0.00408514,0.03522916,0.01
 877559,-0.00926580,0.10136450,0.06919921,-0.10139603,0.00113299,-0.000
 52014,0.00057094,0.00137058,0.00249023,-0.00175254,-0.00122052,-0.0075
 5353,0.00032265,-0.00260533,-0.00474864,-0.00164592,-0.13433435,-0.089
 34531,0.10504074,-0.00761957,-0.01164478,0.00395983,-0.01327771,-0.001
 87873,-0.04099401,-0.17881958,-0.03363047,-0.09309809,-0.00577611,-0.0
 0127154,0.00537950,0.00259391,0.00069001,-0.00007062,-0.00087558,0.000
 32500,-0.00035849,0.00026668,-0.00083718,0.00034831,0.00001790,0.00035
 074,-0.00029420,0.00044496,-0.00016845,0.00009098,0.00045670,0.0002343
 3,-0.00020881,0.00030073,-0.00014357,0.00030782,-0.00011777,0.00045401
 ,-0.00030353,-0.00005161,-0.00047168,0.00032895,-0.00050898,0.00015569
 ,-0.00004517,-0.00058219,-0.00030438,0.00028743,0.19709690,-0.00166439
 ,-0.00465039,0.00300471,-0.01175497,0.00672634,-0.02122860,-0.03775849
 ,-0.08073213,-0.02878698,-0.00277645,-0.00049832,0.00297863,0.00098113
 ,0.00004534,0.00075096,-0.00048644,0.00020690,-0.00016113,0.00019741,-
 0.00042284,0.00015981,0.00002399,0.00013706,-0.00014315,0.00020674,-0.
 00009261,0.00003608,0.00022645,0.00011653,-0.00009530,0.00013114,-0.00
 004411,0.00015123,-0.00006682,0.00025284,-0.00015085,-0.00003440,-0.00
 023715,0.00015717,-0.00024788,0.00007699,-0.00002551,-0.00027459,-0.00
 014290,0.00013205,0.02194336,0.07957824,-0.00316107,-0.00299252,0.0015
 8434,-0.00548010,-0.00094142,-0.00955652,-0.09892012,-0.03019911,-0.16
 819259,-0.00146781,0.00027151,0.00322076,0.00015217,0.00008820,0.00100
 664,-0.00036395,0.00011573,-0.00015081,0.00017164,-0.00022256,0.000042
 60,0.00003680,0.00007130,-0.00006688,0.00008823,-0.00007735,-0.0000078
 2,0.00010605,0.00007774,-0.00004530,0.00009761,-0.00002675,0.00011641,
 -0.00003582,0.00013295,-0.00004650,-0.00001907,-0.00012978,0.00008147,
 -0.00012275,0.00003575,-0.00001012,-0.00013095,-0.00007428,0.00005902,
 0.16068117,0.03730634,0.28076943,-0.00430569,-0.00234577,-0.00180810,0
 .01367732,-0.01331177,0.00607470,-0.08157378,0.02920481,-0.00696969,-0
 .00234263,-0.00122891,0.00144382,0.00100291,0.00049746,-0.00089390,-0.
 00029942,0.00011271,-0.00003509,0.00001965,-0.00033664,0.00018660,0.00
 004314,0.00014072,-0.00009406,0.00015351,-0.00001204,0.00001420,0.0001
 5392,0.00008471,-0.00010354,0.00010326,-0.00008843,0.00004905,-0.00002
 003,0.00010821,-0.00010844,-0.00001867,-0.00017823,0.00013947,-0.00022
 436,0.00005560,-0.00000516,-0.00020552,-0.00010543,0.00011149,-0.01664
 877,0.03704715,-0.03842155,0.10252284,-0.01206259,-0.00732519,-0.00102
 137,0.02580356,-0.03310638,0.01086538,0.02404544,-0.25243664,0.0706690
 3,-0.00744589,0.00077462,0.00438846,0.00027215,0.00226855,-0.00122041,
 -0.00024444,0.00034982,-0.00038071,-0.00003975,-0.00123954,0.00077444,
 0.00001933,0.00036445,-0.00027370,0.00032702,-0.00002840,-0.00002592,0
 .00037395,0.00020881,-0.00021501,0.00019045,-0.00018643,0.00021880,-0.
 00004227,0.00038985,-0.00030461,-0.00002371,-0.00038101,0.00027992,-0.
 00054695,0.00013256,-0.00001495,-0.00048801,-0.00025155,0.00025010,0.0
 2719255,-0.00038773,0.02933732,-0.09723750,0.34514509,0.00531980,0.005
 14881,-0.00000864,-0.00913863,0.01511203,0.00346567,-0.00696318,0.0645
 9405,-0.09446460,0.00285747,0.00053624,-0.00178655,-0.00132104,-0.0005
 8539,0.00074784,0.00023584,-0.00007659,0.00012077,-0.00002803,0.000379
 71,-0.00023685,-0.00001991,-0.00016584,0.00010913,-0.00017782,0.000046
 40,-0.00001583,-0.00017848,-0.00009093,0.00009845,-0.00007681,0.000069
 03,-0.00008359,0.00003477,-0.00016530,0.00013908,0.00001789,0.00018341
 ,-0.00013894,0.00023539,-0.00006679,0.00001426,0.00023544,0.00011936,-
 0.00012087,-0.03642479,0.03950418,-0.03296550,0.03290372,-0.09341946,0
 .11176014,-0.00164288,-0.00067712,-0.00039857,-0.01207224,0.01886032,0
 .03106936,-0.15198722,0.03358251,0.09195329,-0.01199824,-0.00535712,0.
 00657001,0.00137950,0.00239336,-0.00009013,-0.00115181,0.00044502,-0.0
 0034740,0.00002477,-0.00134692,0.00102238,0.00006470,0.00038368,-0.000
 33666,0.00044458,-0.00009761,-0.00004724,0.00052167,0.00030539,-0.0002
 5304,0.00048416,-0.00024371,0.00025493,-0.00009361,0.00055337,-0.00036
 101,-0.00006108,-0.00053844,0.00039418,-0.00067638,0.00014508,-0.00004
 417,-0.00067521,-0.00036136,0.00033566,0.02310012,-0.00569293,-0.01321
 049,-0.01203770,0.03990667,0.01248836,0.16637687,-0.00217193,0.0024334
 2,0.00425945,-0.00644941,0.00321924,0.00159824,0.04608620,-0.10359696,
 -0.06173630,-0.00184377,-0.00001274,0.00133373,0.00006890,0.00036459,0
 .00023032,-0.00005575,0.00006426,-0.00005421,0.00005133,-0.00014519,0.
 00009861,0.00000407,0.00003918,-0.00004958,0.00003512,-0.00004436,0.00
 000325,0.00004842,0.00003988,-0.00002850,0.00003377,-0.00001048,0.0000
 3920,-0.00000960,0.00008900,-0.00004493,-0.00000295,-0.00004729,0.0000
 3194,-0.00006171,0.00001842,-0.00000904,-0.00007098,-0.00003762,0.0000
 3366,-0.00099489,0.00006797,-0.03277306,0.04759337,-0.05429087,-0.0311
 2293,-0.08226020,0.15184954,-0.00125973,0.00284145,0.00190504,0.013476
 81,-0.01943665,-0.01604432,0.10024143,-0.05140038,-0.18991617,0.008924
 77,0.00433670,-0.00420374,-0.00122613,-0.00159109,-0.00000339,0.000939
 02,-0.00038291,0.00025995,-0.00001825,0.00103860,-0.00076687,-0.000026
 08,-0.00029615,0.00025143,-0.00036150,0.00007469,0.00002654,-0.0004297
 9,-0.00022580,0.00018997,-0.00038389,0.00019379,-0.00020421,0.00007827
 ,-0.00044041,0.00028936,0.00005203,0.00042689,-0.00030531,0.00052580,-
 0.00011692,0.00003540,0.00053653,0.00028500,-0.00026426,0.00041371,-0.
 03358965,-0.07583861,0.00751648,-0.01990731,0.01336606,-0.12899947,0.1
 1819016,0.27122315\\0.00001024,-0.00001791,0.00000380,0.00000752,0.000
 01551,0.00001742,-0.00000026,0.00000654,0.00001225,-0.00000027,0.00000
 142,-0.00001189,0.00000669,-0.00001262,0.00001045,0.00001340,0.0000085
 9,0.00000456,-0.00001718,-0.00000302,-0.00001324,-0.00001288,0.0000124
 6,-0.00000073,-0.00000038,-0.00000292,-0.00001816,0.00000397,-0.000006
 73,-0.00000059,-0.00000721,0.00001788,0.00001748,-0.00000407,-0.000010
 19,-0.00002229,0.00000168,0.00000990,0.00001505,-0.00000408,-0.0000154
 8,-0.00002197,-0.00000380,-0.00000193,-0.00000636,-0.00000427,0.000013
 69,0.00000794,0.00000183,-0.00001069,-0.00000400,0.00000905,-0.0000044
 8,0.00001029\\\@


 Where a calculator on the ENIAC is equipped with 18,000
 vacuum tubes and weighs 30 tons, computers inthe future
 may  have only 1,000 vacuum tubes and weigh only 1 1/2 tons.
              ---Popular Mechanics, March 1949
 Job cpu time:       0 days  5 hours 28 minutes 11.5 seconds.
 Elapsed time:       0 days  0 hours 13 minutes 41.7 seconds.
 File lengths (MBytes):  RWF=    605 Int=      0 D2E=      0 Chk=     32 Scr=      1
 Normal termination of Gaussian 16 at Mon Aug 19 19:15:27 2024.
