 Entering Gaussian System, Link 0=g16
 Input=input.com
 Output=input.log
 Initial command:
 /share/apps/g16.b01_avx2/g16/l1.exe "/scratch/Gau-127927.inp" -scrdir="/scratch/"
 Entering Link 1 = /share/apps/g16.b01_avx2/g16/l1.exe PID=    127929.
  
 Copyright (c) 1988-2017, Gaussian, Inc.  All Rights Reserved.
  
 This is part of the Gaussian(R) 16 program.  It is based on
 the Gaussian(R) 09 system (copyright 2009, Gaussian, Inc.),
 the Gaussian(R) 03 system (copyright 2003, Gaussian, Inc.),
 the Gaussian(R) 98 system (copyright 1998, Gaussian, Inc.),
 the Gaussian(R) 94 system (copyright 1995, Gaussian, Inc.),
 the Gaussian 92(TM) system (copyright 1992, Gaussian, Inc.),
 the Gaussian 90(TM) system (copyright 1990, Gaussian, Inc.),
 the Gaussian 88(TM) system (copyright 1988, Gaussian, Inc.),
 the Gaussian 86(TM) system (copyright 1986, Carnegie Mellon
 University), and the Gaussian 82(TM) system (copyright 1983,
 Carnegie Mellon University). Gaussian is a federally registered
 trademark of Gaussian, Inc.
  
 This software contains proprietary and confidential information,
 including trade secrets, belonging to Gaussian, Inc.
  
 This software is provided under written license and may be
 used, copied, transmitted, or stored only in accord with that
 written license.
  
 The following legend is applicable only to US Government
 contracts under FAR:
  
                    RESTRICTED RIGHTS LEGEND
  
 Use, reproduction and disclosure by the US Government is
 subject to restrictions as set forth in subparagraphs (a)
 and (c) of the Commercial Computer Software - Restricted
 Rights clause in FAR 52.227-19.
  
 Gaussian, Inc.
 340 Quinnipiac St., Bldg. 40, Wallingford CT 06492
  
  
 ---------------------------------------------------------------
 Warning -- This program may not be used in any manner that
 competes with the business of Gaussian, Inc. or will provide
 assistance to any competitor of Gaussian, Inc.  The licensee
 of this program is prohibited from giving any competitor of
 Gaussian, Inc. access to this program.  By using this program,
 the user acknowledges that Gaussian, Inc. is engaged in the
 business of creating and licensing software in the field of
 computational chemistry and represents and warrants to the
 licensee that it is not a competitor of Gaussian, Inc. and that
 it will not use this program in any manner prohibited above.
 ---------------------------------------------------------------
  

 Cite this work as:
 Gaussian 16, Revision B.01,
 M. J. Frisch, G. W. Trucks, H. B. Schlegel, G. E. Scuseria, 
 M. A. Robb, J. R. Cheeseman, G. Scalmani, V. Barone, 
 G. A. Petersson, H. Nakatsuji, X. Li, M. Caricato, A. V. Marenich, 
 J. Bloino, B. G. Janesko, R. Gomperts, B. Mennucci, H. P. Hratchian, 
 J. V. Ortiz, A. F. Izmaylov, J. L. Sonnenberg, D. Williams-Young, 
 F. Ding, F. Lipparini, F. Egidi, J. Goings, B. Peng, A. Petrone, 
 T. Henderson, D. Ranasinghe, V. G. Zakrzewski, J. Gao, N. Rega, 
 G. Zheng, W. Liang, M. Hada, M. Ehara, K. Toyota, R. Fukuda, 
 J. Hasegawa, M. Ishida, T. Nakajima, Y. Honda, O. Kitao, H. Nakai, 
 T. Vreven, K. Throssell, J. A. Montgomery, Jr., J. E. Peralta, 
 F. Ogliaro, M. J. Bearpark, J. J. Heyd, E. N. Brothers, K. N. Kudin, 
 V. N. Staroverov, T. A. Keith, R. Kobayashi, J. Normand, 
 K. Raghavachari, A. P. Rendell, J. C. Burant, S. S. Iyengar, 
 J. Tomasi, M. Cossi, J. M. Millam, M. Klene, C. Adamo, R. Cammi, 
 J. W. Ochterski, R. L. Martin, K. Morokuma, O. Farkas, 
 J. B. Foresman, and D. J. Fox, Gaussian, Inc., Wallingford CT, 2016.
 
 ******************************************
 Gaussian 16:  ES64L-G16RevB.01 20-Dec-2017
                29-Aug-2024 
 ******************************************
 %nproc=24
 Will use up to   24 processors via shared memory.
 %mem=64GB
 ----------------------------------------------------------------------
 #P PBE1PBE/def2TZVP opt freq EmpiricalDispersion=GD3 Int=(grid=99590) 
 scrf=(iefpcm, solvent=water)
 ----------------------------------------------------------------------
 1/18=20,19=15,26=6,38=1/1,3;
 2/9=110,12=2,17=6,18=5,40=1/2;
 3/5=44,7=101,11=2,25=1,30=1,70=2201,71=1,72=1,74=-13,75=99590,124=31/1,2,3;
 4//1;
 5/5=2,38=5,53=1/2;
 6/7=2,8=2,9=2,10=2,28=1/1;
 7//1,2,3,16;
 1/18=20,19=15,26=6/3(2);
 2/9=110/2;
 99//99;
 2/9=110/2;
 3/5=44,7=101,11=2,25=1,30=1,70=2205,71=1,72=1,74=-13,75=99590,124=31/1,2,3;
 4/5=5,16=3,69=1/1;
 5/5=2,38=5,53=1/2;
 7//1,2,3,16;
 1/18=20,19=15,26=6/3(-5);
 2/9=110/2;
 6/7=2,8=2,9=2,10=2,19=2,28=1/1;
 99/9=1/99;
 Leave Link    1 at Thu Aug 29 16:13:12 2024, MaxMem=  8589934592 cpu:               0.6 elap:               0.0
 (Enter /share/apps/g16.b01_avx2/g16/l101.exe)
 --------------------
 pfp-ch2F_ester inter
 --------------------
 Symbolic Z-matrix:
 Charge =  0 Multiplicity = 1
 H                    -2.38383   1.6242    0.15024 
 O                    -1.82159  -0.54909   1.31775 
 C                    -2.28509  -0.50216   0.17075 
 N                    -3.08941   0.92129  -0.05831 
 H                    -3.34124   1.03395  -1.03733 
 C                    -4.24972   1.08753   0.82714 
 H                    -5.04366   0.41513   0.51086 
 H                    -3.93389   0.84095   1.83915 
 H                    -4.60674   2.11529   0.78855 
 C                    -3.18374  -1.59725  -0.36513 
 O                    -1.25518  -0.27146  -0.96263 
 C                     0.01051  -0.12482  -0.55805 
 C                     0.58541   1.13588  -0.42547 
 C                     0.82232  -1.2224   -0.28247 
 C                     1.90823   1.3055   -0.05907 
 C                     2.14596  -1.07126   0.08962 
 C                     2.69328   0.19587   0.201 
 F                    -0.16252   2.21749  -0.64948 
 F                     0.32385  -2.44952  -0.38922 
 F                     2.42537   2.52424   0.05163 
 F                     2.89816  -2.13758   0.34052 
 F                     3.96377   0.34454   0.55525 
 F                    -2.45363  -2.73238  -0.39565 
 H                    -3.54196  -1.39198  -1.35227 
 H                    -4.01205  -1.7436    0.29622 
 
 ITRead=  0  0  0  0  0  0  0  0  0  0  0  0  0  0  0  0  0  0  0  0
 ITRead=  0  0  0  0  0
 MicOpt= -1 -1 -1 -1 -1 -1 -1 -1 -1 -1 -1 -1 -1 -1 -1 -1 -1 -1 -1 -1
 MicOpt= -1 -1 -1 -1 -1
 NAtoms=     25 NQM=       25 NQMF=       0 NMMI=      0 NMMIF=      0
                NMic=       0 NMicF=      0.
                    Isotopes and Nuclear Properties:
 (Nuclear quadrupole moments (NQMom) in fm**2, nuclear magnetic moments (NMagM)
  in nuclear magnetons)

  Atom         1           2           3           4           5           6           7           8           9          10
 IAtWgt=           1          16          12          14           1          12           1           1           1          12
 AtmWgt=   1.0078250  15.9949146  12.0000000  14.0030740   1.0078250  12.0000000   1.0078250   1.0078250   1.0078250  12.0000000
 NucSpn=           1           0           0           2           1           0           1           1           1           0
 AtZEff=  -0.0000000  -0.0000000  -0.0000000  -0.0000000  -0.0000000  -0.0000000  -0.0000000  -0.0000000  -0.0000000  -0.0000000
 NQMom=    0.0000000   0.0000000   0.0000000   2.0440000   0.0000000   0.0000000   0.0000000   0.0000000   0.0000000   0.0000000
 NMagM=    2.7928460   0.0000000   0.0000000   0.4037610   2.7928460   0.0000000   2.7928460   2.7928460   2.7928460   0.0000000
 AtZNuc=   1.0000000   8.0000000   6.0000000   7.0000000   1.0000000   6.0000000   1.0000000   1.0000000   1.0000000   6.0000000

  Atom        11          12          13          14          15          16          17          18          19          20
 IAtWgt=          16          12          12          12          12          12          12          19          19          19
 AtmWgt=  15.9949146  12.0000000  12.0000000  12.0000000  12.0000000  12.0000000  12.0000000  18.9984032  18.9984032  18.9984032
 NucSpn=           0           0           0           0           0           0           0           1           1           1
 AtZEff=  -0.0000000  -0.0000000  -0.0000000  -0.0000000  -0.0000000  -0.0000000  -0.0000000  -0.0000000  -0.0000000  -0.0000000
 NQMom=    0.0000000   0.0000000   0.0000000   0.0000000   0.0000000   0.0000000   0.0000000   0.0000000   0.0000000   0.0000000
 NMagM=    0.0000000   0.0000000   0.0000000   0.0000000   0.0000000   0.0000000   0.0000000   2.6288670   2.6288670   2.6288670
 AtZNuc=   8.0000000   6.0000000   6.0000000   6.0000000   6.0000000   6.0000000   6.0000000   9.0000000   9.0000000   9.0000000

  Atom        21          22          23          24          25
 IAtWgt=          19          19          19           1           1
 AtmWgt=  18.9984032  18.9984032  18.9984032   1.0078250   1.0078250
 NucSpn=           1           1           1           1           1
 AtZEff=  -0.0000000  -0.0000000  -0.0000000  -0.0000000  -0.0000000
 NQMom=    0.0000000   0.0000000   0.0000000   0.0000000   0.0000000
 NMagM=    2.6288670   2.6288670   2.6288670   2.7928460   2.7928460
 AtZNuc=   9.0000000   9.0000000   9.0000000   1.0000000   1.0000000
 Leave Link  101 at Thu Aug 29 16:13:12 2024, MaxMem=  8589934592 cpu:               7.1 elap:               0.3
 (Enter /share/apps/g16.b01_avx2/g16/l103.exe)

 GradGradGradGradGradGradGradGradGradGradGradGradGradGradGradGradGradGrad
 Berny optimization.
 Initialization pass.
                           ----------------------------
                           !    Initial Parameters    !
                           ! (Angstroms and Degrees)  !
 --------------------------                            --------------------------
 ! Name  Definition              Value          Derivative Info.                !
 --------------------------------------------------------------------------------
 ! R1    R(1,4)                  1.0176         estimate D2E/DX2                !
 ! R2    R(2,3)                  1.238          estimate D2E/DX2                !
 ! R3    R(3,4)                  1.6509         estimate D2E/DX2                !
 ! R4    R(3,10)                 1.5146         estimate D2E/DX2                !
 ! R5    R(3,11)                 1.5487         estimate D2E/DX2                !
 ! R6    R(4,5)                  1.0171         estimate D2E/DX2                !
 ! R7    R(4,6)                  1.469          estimate D2E/DX2                !
 ! R8    R(6,7)                  1.0874         estimate D2E/DX2                !
 ! R9    R(6,8)                  1.0884         estimate D2E/DX2                !
 ! R10   R(6,9)                  1.0887         estimate D2E/DX2                !
 ! R11   R(10,23)                1.35           estimate D2E/DX2                !
 ! R12   R(10,24)                1.07           estimate D2E/DX2                !
 ! R13   R(10,25)                1.07           estimate D2E/DX2                !
 ! R14   R(11,12)                1.3368         estimate D2E/DX2                !
 ! R15   R(12,13)                1.3919         estimate D2E/DX2                !
 ! R16   R(12,14)                1.3927         estimate D2E/DX2                !
 ! R17   R(13,15)                1.3831         estimate D2E/DX2                !
 ! R18   R(13,18)                1.334          estimate D2E/DX2                !
 ! R19   R(14,16)                1.3832         estimate D2E/DX2                !
 ! R20   R(14,19)                1.3288         estimate D2E/DX2                !
 ! R21   R(15,17)                1.3839         estimate D2E/DX2                !
 ! R22   R(15,20)                1.3285         estimate D2E/DX2                !
 ! R23   R(16,17)                1.3848         estimate D2E/DX2                !
 ! R24   R(16,21)                1.3288         estimate D2E/DX2                !
 ! R25   R(17,22)                1.3273         estimate D2E/DX2                !
 ! A1    A(2,3,4)              110.0987         estimate D2E/DX2                !
 ! A2    A(2,3,10)             121.5026         estimate D2E/DX2                !
 ! A3    A(2,3,11)             115.7658         estimate D2E/DX2                !
 ! A4    A(4,3,10)             106.5739         estimate D2E/DX2                !
 ! A5    A(4,3,11)              95.3945         estimate D2E/DX2                !
 ! A6    A(10,3,11)            104.0841         estimate D2E/DX2                !
 ! A7    A(1,4,3)              103.2582         estimate D2E/DX2                !
 ! A8    A(1,4,5)              107.004          estimate D2E/DX2                !
 ! A9    A(1,4,6)              110.2424         estimate D2E/DX2                !
 ! A10   A(3,4,5)              110.4667         estimate D2E/DX2                !
 ! A11   A(3,4,6)              113.4997         estimate D2E/DX2                !
 ! A12   A(5,4,6)              111.8433         estimate D2E/DX2                !
 ! A13   A(4,6,7)              109.3539         estimate D2E/DX2                !
 ! A14   A(4,6,8)              107.794          estimate D2E/DX2                !
 ! A15   A(4,6,9)              110.1501         estimate D2E/DX2                !
 ! A16   A(7,6,8)              110.0113         estimate D2E/DX2                !
 ! A17   A(7,6,9)              109.5119         estimate D2E/DX2                !
 ! A18   A(8,6,9)              109.997          estimate D2E/DX2                !
 ! A19   A(3,10,23)            107.1613         estimate D2E/DX2                !
 ! A20   A(3,10,24)            112.7272         estimate D2E/DX2                !
 ! A21   A(3,10,25)            109.847          estimate D2E/DX2                !
 ! A22   A(23,10,24)           108.7547         estimate D2E/DX2                !
 ! A23   A(23,10,25)           108.5199         estimate D2E/DX2                !
 ! A24   A(24,10,25)           109.7118         estimate D2E/DX2                !
 ! A25   A(3,11,12)            115.1181         estimate D2E/DX2                !
 ! A26   A(11,12,13)           121.2798         estimate D2E/DX2                !
 ! A27   A(11,12,14)           121.6893         estimate D2E/DX2                !
 ! A28   A(13,12,14)           117.0125         estimate D2E/DX2                !
 ! A29   A(12,13,15)           122.0963         estimate D2E/DX2                !
 ! A30   A(12,13,18)           119.1312         estimate D2E/DX2                !
 ! A31   A(15,13,18)           118.771          estimate D2E/DX2                !
 ! A32   A(12,14,16)           121.662          estimate D2E/DX2                !
 ! A33   A(12,14,19)           119.5526         estimate D2E/DX2                !
 ! A34   A(16,14,19)           118.7824         estimate D2E/DX2                !
 ! A35   A(13,15,17)           119.6047         estimate D2E/DX2                !
 ! A36   A(13,15,20)           120.4557         estimate D2E/DX2                !
 ! A37   A(17,15,20)           119.9384         estimate D2E/DX2                !
 ! A38   A(14,16,17)           119.9891         estimate D2E/DX2                !
 ! A39   A(14,16,21)           120.317          estimate D2E/DX2                !
 ! A40   A(17,16,21)           119.6939         estimate D2E/DX2                !
 ! A41   A(15,17,16)           119.6281         estimate D2E/DX2                !
 ! A42   A(15,17,22)           120.2209         estimate D2E/DX2                !
 ! A43   A(16,17,22)           120.1511         estimate D2E/DX2                !
 ! D1    D(2,3,4,1)             56.6794         estimate D2E/DX2                !
 ! D2    D(2,3,4,5)            170.7981         estimate D2E/DX2                !
 ! D3    D(2,3,4,6)            -62.6653         estimate D2E/DX2                !
 ! D4    D(10,3,4,1)          -169.7342         estimate D2E/DX2                !
 ! D5    D(10,3,4,5)           -55.6155         estimate D2E/DX2                !
 ! D6    D(10,3,4,6)            70.9211         estimate D2E/DX2                !
 ! D7    D(11,3,4,1)           -63.2872         estimate D2E/DX2                !
 ! D8    D(11,3,4,5)            50.8315         estimate D2E/DX2                !
 ! D9    D(11,3,4,6)           177.3681         estimate D2E/DX2                !
 ! D10   D(2,3,10,23)          -63.177          estimate D2E/DX2                !
 ! D11   D(2,3,10,24)          177.2075         estimate D2E/DX2                !
 ! D12   D(2,3,10,25)           54.5263         estimate D2E/DX2                !
 ! D13   D(4,3,10,23)          169.7445         estimate D2E/DX2                !
 ! D14   D(4,3,10,24)           50.1289         estimate D2E/DX2                !
 ! D15   D(4,3,10,25)          -72.5523         estimate D2E/DX2                !
 ! D16   D(11,3,10,23)          69.6194         estimate D2E/DX2                !
 ! D17   D(11,3,10,24)         -49.9961         estimate D2E/DX2                !
 ! D18   D(11,3,10,25)        -172.6774         estimate D2E/DX2                !
 ! D19   D(2,3,11,12)           -1.2473         estimate D2E/DX2                !
 ! D20   D(4,3,11,12)          114.1475         estimate D2E/DX2                !
 ! D21   D(10,3,11,12)        -137.2444         estimate D2E/DX2                !
 ! D22   D(1,4,6,7)            172.859          estimate D2E/DX2                !
 ! D23   D(1,4,6,8)            -67.5596         estimate D2E/DX2                !
 ! D24   D(1,4,6,9)             52.4628         estimate D2E/DX2                !
 ! D25   D(3,4,6,7)            -71.8709         estimate D2E/DX2                !
 ! D26   D(3,4,6,8)             47.7105         estimate D2E/DX2                !
 ! D27   D(3,4,6,9)            167.7328         estimate D2E/DX2                !
 ! D28   D(5,4,6,7)             53.937          estimate D2E/DX2                !
 ! D29   D(5,4,6,8)            173.5184         estimate D2E/DX2                !
 ! D30   D(5,4,6,9)            -66.4592         estimate D2E/DX2                !
 ! D31   D(3,11,12,13)         -98.8821         estimate D2E/DX2                !
 ! D32   D(3,11,12,14)          82.7259         estimate D2E/DX2                !
 ! D33   D(11,12,13,15)       -177.409          estimate D2E/DX2                !
 ! D34   D(11,12,13,18)          3.0457         estimate D2E/DX2                !
 ! D35   D(14,12,13,15)          1.0552         estimate D2E/DX2                !
 ! D36   D(14,12,13,18)       -178.4901         estimate D2E/DX2                !
 ! D37   D(11,12,14,16)        177.6349         estimate D2E/DX2                !
 ! D38   D(11,12,14,19)         -1.7371         estimate D2E/DX2                !
 ! D39   D(13,12,14,16)         -0.8226         estimate D2E/DX2                !
 ! D40   D(13,12,14,19)        179.8054         estimate D2E/DX2                !
 ! D41   D(12,13,15,17)         -0.7078         estimate D2E/DX2                !
 ! D42   D(12,13,15,20)        179.6795         estimate D2E/DX2                !
 ! D43   D(18,13,15,17)        178.8391         estimate D2E/DX2                !
 ! D44   D(18,13,15,20)         -0.7736         estimate D2E/DX2                !
 ! D45   D(12,14,16,17)          0.2505         estimate D2E/DX2                !
 ! D46   D(12,14,16,21)       -179.6925         estimate D2E/DX2                !
 ! D47   D(19,14,16,17)        179.6272         estimate D2E/DX2                !
 ! D48   D(19,14,16,21)         -0.3158         estimate D2E/DX2                !
 ! D49   D(13,15,17,16)          0.0882         estimate D2E/DX2                !
 ! D50   D(13,15,17,22)       -179.9114         estimate D2E/DX2                !
 ! D51   D(20,15,17,16)        179.7029         estimate D2E/DX2                !
 ! D52   D(20,15,17,22)         -0.2967         estimate D2E/DX2                !
 ! D53   D(14,16,17,15)          0.1335         estimate D2E/DX2                !
 ! D54   D(14,16,17,22)       -179.8669         estimate D2E/DX2                !
 ! D55   D(21,16,17,15)       -179.9232         estimate D2E/DX2                !
 ! D56   D(21,16,17,22)          0.0764         estimate D2E/DX2                !
 --------------------------------------------------------------------------------
 Trust Radius=3.00D-01 FncErr=5.00D-06 GrdErr=5.00D-06 EigMax=2.50D+02 EigMin=1.00D-04
 Number of steps in this run=    134 maximum allowed number of steps=    150.
 GradGradGradGradGradGradGradGradGradGradGradGradGradGradGradGradGradGrad

 Leave Link  103 at Thu Aug 29 16:13:12 2024, MaxMem=  8589934592 cpu:               0.2 elap:               0.0
 (Enter /share/apps/g16.b01_avx2/g16/l202.exe)
                          Input orientation:                          
 ---------------------------------------------------------------------
 Center     Atomic      Atomic             Coordinates (Angstroms)
 Number     Number       Type             X           Y           Z
 ---------------------------------------------------------------------
      1          1           0       -2.383829    1.624202    0.150237
      2          8           0       -1.821586   -0.549093    1.317749
      3          6           0       -2.285094   -0.502158    0.170750
      4          7           0       -3.089411    0.921294   -0.058314
      5          1           0       -3.341241    1.033951   -1.037329
      6          6           0       -4.249723    1.087525    0.827140
      7          1           0       -5.043664    0.415126    0.510861
      8          1           0       -3.933886    0.840950    1.839147
      9          1           0       -4.606738    2.115293    0.788554
     10          6           0       -3.183739   -1.597254   -0.365134
     11          8           0       -1.255180   -0.271461   -0.962627
     12          6           0        0.010505   -0.124822   -0.558054
     13          6           0        0.585408    1.135881   -0.425472
     14          6           0        0.822320   -1.222397   -0.282473
     15          6           0        1.908228    1.305495   -0.059071
     16          6           0        2.145960   -1.071257    0.089620
     17          6           0        2.693277    0.195871    0.200995
     18          9           0       -0.162520    2.217487   -0.649477
     19          9           0        0.323848   -2.449521   -0.389216
     20          9           0        2.425365    2.524237    0.051633
     21          9           0        2.898159   -2.137581    0.340520
     22          9           0        3.963765    0.344539    0.555246
     23          9           0       -2.453629   -2.732379   -0.395646
     24          1           0       -3.541961   -1.391981   -1.352271
     25          1           0       -4.012051   -1.743596    0.296215
 ---------------------------------------------------------------------
                    Distance matrix (angstroms):
                    1          2          3          4          5
     1  H    0.000000
     2  O    2.530299   0.000000
     3  C    2.128750   1.238002   0.000000
     4  N    1.017555   2.379699   1.650943   0.000000
     5  H    1.635649   3.218971   2.221381   1.017143   0.000000
     6  C    2.056157   2.969018   2.611074   1.469008   2.074718
     7  H    2.943915   3.458695   2.926909   2.097444   2.382872
     8  H    2.422515   2.581838   2.702962   2.078449   2.943228
     9  H    2.364306   3.890510   3.552853   2.108341   2.470755
    10  C    3.359054   2.405452   1.514586   2.538921   2.720274
    11  O    2.471002   2.366011   1.548705   2.367456   2.461977
    12  C    3.048540   2.656163   2.437891   3.309619   3.578639
    13  C    3.063701   3.416369   3.358338   3.699344   3.975340
    14  C    4.309264   3.162956   3.221828   4.466240   4.795431
    15  C    4.308960   4.387100   4.572130   5.012385   5.346742
    16  C    5.271448   4.185974   4.468187   5.603682   5.984253
    17  C    5.274439   4.710212   5.027160   5.833778   6.217011
    18  F    2.434285   3.778418   3.546063   3.255193   3.414008
    19  F    4.921153   3.335902   3.303387   4.808558   5.097794
    20  F    4.893683   5.393051   5.600150   5.744064   6.054794
    21  F    6.487420   5.074866   5.437788   6.735487   7.133526
    22  F    6.487952   5.903412   6.317671   7.103266   7.508309
    23  F    4.391202   2.846390   2.307183   3.723887   3.922353
    24  H    3.563167   3.286207   2.165893   2.688934   2.454511
    25  H    3.743592   2.696017   2.130561   2.842287   3.153268
                    6          7          8          9         10
     6  C    0.000000
     7  H    1.087426   0.000000
     8  H    1.088444   1.782492   0.000000
     9  H    1.088694   1.777241   1.783375   0.000000
    10  C    3.125040   2.876867   3.371411   4.139919   0.000000
    11  O    3.743981   4.122521   4.032724   4.471708   2.415381
    12  C    4.640915   5.194107   4.715666   5.305695   3.522566
    13  C    4.994984   5.751753   5.063546   5.421392   4.656193
    14  C    5.682658   6.141712   5.601800   6.462348   4.024408
    15  C    6.225210   7.031812   6.160303   6.619594   5.869221
    16  C    6.790364   7.353739   6.609229   7.499436   5.374864
    17  C    7.027969   7.746247   6.857037   7.570973   6.170504
    18  F    4.490261   5.331084   4.723484   4.672200   4.874512
    19  F    5.908280   6.150327   5.824182   6.821682   3.609724
    20  F    6.871852   7.774679   6.816798   7.082426   6.972979
    21  F    7.856865   8.343733   7.602261   8.637775   6.146494
    22  F    8.251505   9.007815   8.016715   8.754629   7.463543
    23  F    4.394636   4.175742   4.467006   5.434899   1.350000
    24  H    3.376198   2.998668   3.914682   4.244744   1.070000
    25  H    2.890263   2.402162   3.011084   3.935362   1.070000
                   11         12         13         14         15
    11  O    0.000000
    12  C    1.336840   0.000000
    13  C    2.378426   1.391928   0.000000
    14  C    2.383882   1.392717   2.374458   0.000000
    15  C    3.648336   2.428198   1.383066   2.760316   0.000000
    16  C    3.648925   2.423920   2.751745   1.383228   2.393235
    17  C    4.142792   2.806468   2.391483   2.397020   1.383908
    18  F    2.736207   2.350470   1.333959   3.596860   2.338441
    19  F    2.750650   2.351790   3.595113   1.328797   4.088936
    20  F    4.731919   3.636039   2.353849   4.088844   1.328540
    21  F    4.736119   3.632792   4.080578   2.352613   3.604776
    22  F    5.469989   4.133764   3.605735   3.609119   2.350756
    23  F    2.795329   3.591334   4.919356   3.608974   5.953444
    24  H    2.576190   3.854412   4.927902   4.496685   6.217178
    25  H    3.369303   4.419408   5.472555   4.896700   6.668800
                   16         17         18         19         20
    16  C    0.000000
    17  C    1.384765   0.000000
    18  F    4.085484   3.600807   0.000000
    19  F    2.334307   3.600089   4.699495   0.000000
    20  F    3.606534   2.348483   2.698666   5.417471   0.000000
    21  F    1.328834   2.346581   5.414284   2.693863   4.694629
    22  F    2.350681   1.327304   4.688872   4.684845   2.715029
    23  F    4.914369   5.951577   5.460291   2.791850   7.185864
    24  H    5.876594   6.619071   4.994277   4.121935   7.274386
    25  H    6.198050   6.980833   5.603874   4.446141   7.727519
                   21         22         23         24         25
    21  F    0.000000
    22  F    2.709713   0.000000
    23  F    5.434828   7.180150   0.000000
    24  H    6.700493   7.936627   1.973896   0.000000
    25  H    6.921574   8.248700   1.971051   1.749893   0.000000
 Stoichiometry    C9H7F6NO2
 Framework group  C1[X(C9H7F6NO2)]
 Deg. of freedom    69
 Full point group                 C1      NOp   1
 Largest Abelian subgroup         C1      NOp   1
 Largest concise Abelian subgroup C1      NOp   1
                         Standard orientation:                         
 ---------------------------------------------------------------------
 Center     Atomic      Atomic             Coordinates (Angstroms)
 Number     Number       Type             X           Y           Z
 ---------------------------------------------------------------------
      1          1           0        2.048660   -2.006515    0.142346
      2          8           0        1.697597    0.181833    1.363123
      3          6           0        2.165591    0.117646    0.218785
      4          7           0        2.823886   -1.373728   -0.042106
      5          1           0        3.072940   -1.486114   -1.021862
      6          6           0        3.952344   -1.679637    0.847269
      7          1           0        4.813475   -1.083386    0.554979
      8          1           0        3.652845   -1.428421    1.863094
      9          1           0        4.203803   -2.737001    0.783979
     10          6           0        3.175923    1.129297   -0.280976
     11          8           0        1.129170    0.021958   -0.928020
     12          6           0       -0.148901   -0.005810   -0.536991
     13          6           0       -0.849851   -1.204634   -0.442366
     14          6           0       -0.848134    1.161041   -0.238343
     15          6           0       -2.186699   -1.248468   -0.090534
     16          6           0       -2.183985    1.135517    0.119666
     17          6           0       -2.857927   -0.071952    0.193127
     18          9           0       -0.213080   -2.350448   -0.689511
     19          9           0       -0.226882    2.333565   -0.308605
     20          9           0       -2.825711   -2.410863   -0.016228
     21          9           0       -2.826826    2.265873    0.393256
     22          9           0       -4.140471   -0.099954    0.533764
     23          9           0        2.564882    2.333081   -0.286691
     24          1           0        3.521518    0.914212   -1.270523
     25          1           0        4.008039    1.173716    0.390224
 ---------------------------------------------------------------------
 Rotational constants (GHZ):           0.6555111           0.2951830           0.2192003
 Leave Link  202 at Thu Aug 29 16:13:12 2024, MaxMem=  8589934592 cpu:               0.1 elap:               0.0
 (Enter /share/apps/g16.b01_avx2/g16/l301.exe)
 Standard basis: def2TZVP (5D, 7F)
 Ernie: Thresh=  0.10000D-02 Tol=  0.10000D-05 Strict=F.
 There are   690 symmetry adapted cartesian basis functions of A   symmetry.
 There are   600 symmetry adapted basis functions of A   symmetry.
   600 basis functions,   974 primitive gaussians,   690 cartesian basis functions
    69 alpha electrons       69 beta electrons
       nuclear repulsion energy      1492.4913303266 Hartrees.
 IExCor= 1009 DFT=T Ex+Corr=PBE1PBE ExCW=0 ScaHFX=  0.250000
 ScaDFX=  0.750000  0.750000  1.000000  1.000000 ScalE2=  1.000000  1.000000
 IRadAn=  99590 IRanWt=     -1 IRanGd=            0 ICorTp=0 IEmpDi=131
 NAtoms=   25 NActive=   25 NUniq=   25 SFac= 1.00D+00 NAtFMM=   60 NAOKFM=F Big=F
 Integral buffers will be    131072 words long.
 Raffenetti 2 integral format.
 Two-electron integral symmetry is turned on.
 R6Disp:  Grimme-D3 Dispersion energy=       -0.0161012854 Hartrees.
 Nuclear repulsion after empirical dispersion term =     1492.4752290412 Hartrees.
 ------------------------------------------------------------------------------
 Polarizable Continuum Model (PCM)
 =================================
 Model                : PCM.
 Atomic radii         : UFF (Universal Force Field).
 Polarization charges : Total charges.
 Charge compensation  : None.
 Solution method      : On-the-fly selection.
 Cavity type          : Scaled VdW (van der Waals Surface) (Alpha=1.100).
 Cavity algorithm     : GePol (No added spheres)
                        Default sphere list used, NSphG=   25.
                        Lebedev-Laikov grids with approx.  5.0 points / Ang**2.
                        Smoothing algorithm: York/Karplus (Gamma=1.0000).
                        Polarization charges: spherical gaussians, with
                                              point-specific exponents (IZeta= 3).
                        Self-potential: point-specific (ISelfS= 7).
                        Self-field    : sphere-specific E.n sum rule (ISelfD= 2).
 1st derivatives      : Analytical E(r).r(x)/FMM algorithm (CHGder, D1EAlg=3).
                        Cavity 1st derivative terms included.
 Solvent              : Water, Eps=  78.355300 Eps(inf)=   1.777849
 ------------------------------------------------------------------------------
 GePol: Number of generator spheres                  =      25
 GePol: Total number of spheres                      =      25
 GePol: Number of exposed spheres                    =      25 (100.00%)
 GePol: Number of points                             =    2162
 GePol: Average weight of points                     =       0.13
 GePol: Minimum weight of points                     =   0.38D-10
 GePol: Maximum weight of points                     =    0.20577
 GePol: Number of points with low weight             =     118
 GePol: Fraction of low-weight points (<1% of avg)   =       5.46%
 GePol: Cavity surface area                          =    275.772 Ang**2
 GePol: Cavity volume                                =    292.407 Ang**3
 Leave Link  301 at Thu Aug 29 16:13:12 2024, MaxMem=  8589934592 cpu:               0.8 elap:               0.0
 (Enter /share/apps/g16.b01_avx2/g16/l302.exe)
 NPDir=0 NMtPBC=     1 NCelOv=     1 NCel=       1 NClECP=     1 NCelD=      1
         NCelK=      1 NCelE2=     1 NClLst=     1 CellRange=     0.0.
 One-electron integrals computed using PRISM.
 One-electron integral symmetry used in STVInt
   1 Symmetry operations used in ECPInt.
 ECPInt:  NShTT=   25651 NPrTT=   81420 LenC2=   22500 LenP2D=   50980.
 LDataN:  DoStor=T MaxTD1= 6 Len=  172
 NBasis=   600 RedAO= T EigKep=  1.46D-05  NBF=   600
 NBsUse=   600 1.00D-06 EigRej= -1.00D+00 NBFU=   600
 Precomputing XC quadrature grid using
 IXCGrd= 4 IRadAn=       99590 IRanWt=          -1 IRanGd=           0 AccXCQ= 0.00D+00.
 Generated NRdTot=       0 NPtTot=           0 NUsed=           0 NTot=          32
 NSgBfM=   680   680   680   680   680 MxSgAt=    25 MxSgA2=    25.
 Leave Link  302 at Thu Aug 29 16:13:13 2024, MaxMem=  8589934592 cpu:               9.9 elap:               0.4
 (Enter /share/apps/g16.b01_avx2/g16/l303.exe)
 DipDrv:  MaxL=1.
 Leave Link  303 at Thu Aug 29 16:13:13 2024, MaxMem=  8589934592 cpu:               1.3 elap:               0.1
 (Enter /share/apps/g16.b01_avx2/g16/l401.exe)
 ExpMin= 9.52D-02 ExpMax= 3.55D+04 ExpMxC= 1.21D+03 IAcc=4 IRadAn=    199590 AccDes= 0.00D+00
 Harris functional with IExCor= 1009 and IRadAn=  199590 diagonalized for initial guess.
 HarFok:  IExCor= 1009 AccDes= 0.00D+00 IRadAn=    199590 IDoV= 1 UseB2=F ITyADJ=14
 ICtDFT=  3500011 ScaDFX=  1.000000  1.000000  1.000000  1.000000
 FoFCou: FMM=F IPFlag=           0 FMFlag=      100000 FMFlg1=           0
         NFxFlg=           0 DoJE=T BraDBF=F KetDBF=T FulRan=T
         wScrn=  0.000000 ICntrl=       500 IOpCl=  0 I1Cent=   200000004 NGrid=           0
         NMat0=    1 NMatS0=      1 NMatT0=    0 NMatD0=    1 NMtDS0=    0 NMtDT0=    0
 Petite list used in FoFCou.
 Harris En= -1150.72767106233    
 JPrj=0 DoOrth=F DoCkMO=F.
 Leave Link  401 at Thu Aug 29 16:13:16 2024, MaxMem=  8589934592 cpu:              68.5 elap:               2.9
 (Enter /share/apps/g16.b01_avx2/g16/l502.exe)
 Integral symmetry usage will be decided dynamically.
 Closed shell SCF:
 Using DIIS extrapolation, IDIIS=  1040.
 NGot=  8589934592 LenX=  8588959925 LenY=  8588483135
 Requested convergence on RMS density matrix=1.00D-08 within 128 cycles.
 Requested convergence on MAX density matrix=1.00D-06.
 Requested convergence on             energy=1.00D-06.
 No special actions if energy rises.
 Fock matrices will be formed incrementally for  20 cycles.

 Cycle   1  Pass 1  IDiag  1:
 FoFJK:  IHMeth= 1 ICntrl=       0 DoSepK=F KAlg= 0 I1Cent=           0 FoldK=F
 IRaf= 820000000 NMat=       1 IRICut=       1 DoRegI=T DoRafI=F ISym2E= 0 IDoP0=0 IntGTp=1.
 FoFCou: FMM=F IPFlag=           0 FMFlag=      100000 FMFlg1=           0
         NFxFlg=           0 DoJE=F BraDBF=F KetDBF=F FulRan=T
         wScrn=  0.000000 ICntrl=         0 IOpCl=  0 I1Cent=           0 NGrid=           0
         NMat0=    1 NMatS0=      1 NMatT0=    0 NMatD0=    1 NMtDS0=    0 NMtDT0=    0
 Symmetry not used in FoFCou.
 Inv3:  Mode=1 IEnd=    14022732.
 Iteration    1 A*A^-1 deviation from unit magnitude is 3.11D-15 for   1383.
 Iteration    1 A*A^-1 deviation from orthogonality  is 2.25D-15 for   1935     53.
 Iteration    1 A^-1*A deviation from unit magnitude is 3.55D-15 for   1383.
 Iteration    1 A^-1*A deviation from orthogonality  is 1.78D-15 for   2011    660.
 E= -1150.44117914489    
 DIIS: error= 1.45D-02 at cycle   1 NSaved=   1.
 NSaved= 1 IEnMin= 1 EnMin= -1150.44117914489     IErMin= 1 ErrMin= 1.45D-02
 ErrMax= 1.45D-02  0.00D+00 EMaxC= 1.00D-01 BMatC= 3.38D-01 BMatP= 3.38D-01
 IDIUse=3 WtCom= 8.55D-01 WtEn= 1.45D-01
 Coeff-Com:  0.100D+01
 Coeff-En:   0.100D+01
 Coeff:      0.100D+01
 Gap=     0.261 Goal=   None    Shift=    0.000
 GapD=    0.261 DampG=1.000 DampE=0.500 DampFc=0.5000 IDamp=-1.
 Damping current iteration by 5.00D-01
 RMSDP=3.50D-03 MaxDP=5.48D-01              OVMax= 2.68D-01

 Cycle   2  Pass 1  IDiag  1:
 RMSU=  1.75D-03    CP:  1.01D+00
 E= -1150.51974189933     Delta-E=       -0.078562754439 Rises=F Damp=T
 DIIS: error= 4.28D-03 at cycle   2 NSaved=   2.
 NSaved= 2 IEnMin= 2 EnMin= -1150.51974189933     IErMin= 2 ErrMin= 4.28D-03
 ErrMax= 4.28D-03  0.00D+00 EMaxC= 1.00D-01 BMatC= 4.31D-02 BMatP= 3.38D-01
 IDIUse=3 WtCom= 9.57D-01 WtEn= 4.28D-02
 Coeff-Com:  0.108D+00 0.892D+00
 Coeff-En:   0.241D+00 0.759D+00
 Coeff:      0.114D+00 0.886D+00
 Gap=     0.290 Goal=   None    Shift=    0.000
 RMSDP=1.25D-03 MaxDP=2.06D-01 DE=-7.86D-02 OVMax= 1.58D-01

 Cycle   3  Pass 1  IDiag  1:
 RMSU=  7.01D-04    CP:  9.93D-01  4.11D-01
 E= -1150.63812520597     Delta-E=       -0.118383306644 Rises=F Damp=F
 DIIS: error= 5.59D-03 at cycle   3 NSaved=   3.
 NSaved= 3 IEnMin= 3 EnMin= -1150.63812520597     IErMin= 2 ErrMin= 4.28D-03
 ErrMax= 5.59D-03  0.00D+00 EMaxC= 1.00D-01 BMatC= 3.71D-02 BMatP= 4.31D-02
 IDIUse=3 WtCom= 9.44D-01 WtEn= 5.59D-02
 Coeff-Com: -0.529D-01 0.490D+00 0.563D+00
 Coeff-En:   0.000D+00 0.000D+00 0.100D+01
 Coeff:     -0.500D-01 0.462D+00 0.588D+00
 Gap=     0.245 Goal=   None    Shift=    0.000
 RMSDP=3.67D-04 MaxDP=2.26D-02 DE=-1.18D-01 OVMax= 5.57D-02

 Cycle   4  Pass 1  IDiag  1:
 RMSU=  3.21D-04    CP:  9.91D-01  4.83D-01  8.23D-01
 E= -1150.66163467219     Delta-E=       -0.023509466220 Rises=F Damp=F
 DIIS: error= 2.15D-03 at cycle   4 NSaved=   4.
 NSaved= 4 IEnMin= 4 EnMin= -1150.66163467219     IErMin= 4 ErrMin= 2.15D-03
 ErrMax= 2.15D-03  0.00D+00 EMaxC= 1.00D-01 BMatC= 4.01D-03 BMatP= 3.71D-02
 IDIUse=3 WtCom= 9.78D-01 WtEn= 2.15D-02
 Coeff-Com: -0.385D-01 0.136D+00 0.300D+00 0.603D+00
 Coeff-En:   0.000D+00 0.000D+00 0.587D-01 0.941D+00
 Coeff:     -0.377D-01 0.133D+00 0.294D+00 0.610D+00
 Gap=     0.242 Goal=   None    Shift=    0.000
 RMSDP=1.30D-04 MaxDP=7.55D-03 DE=-2.35D-02 OVMax= 1.45D-02

 Cycle   5  Pass 1  IDiag  1:
 RMSU=  7.45D-05    CP:  9.91D-01  4.97D-01  9.04D-01  7.29D-01
 E= -1150.66433881976     Delta-E=       -0.002704147570 Rises=F Damp=F
 DIIS: error= 4.82D-04 at cycle   5 NSaved=   5.
 NSaved= 5 IEnMin= 5 EnMin= -1150.66433881976     IErMin= 5 ErrMin= 4.82D-04
 ErrMax= 4.82D-04  0.00D+00 EMaxC= 1.00D-01 BMatC= 4.78D-04 BMatP= 4.01D-03
 IDIUse=3 WtCom= 9.95D-01 WtEn= 4.82D-03
 Coeff-Com: -0.178D-01 0.432D-01 0.120D+00 0.347D+00 0.508D+00
 Coeff-En:   0.000D+00 0.000D+00 0.000D+00 0.434D-01 0.957D+00
 Coeff:     -0.177D-01 0.430D-01 0.119D+00 0.346D+00 0.510D+00
 Gap=     0.243 Goal=   None    Shift=    0.000
 RMSDP=4.39D-05 MaxDP=3.08D-03 DE=-2.70D-03 OVMax= 5.65D-03

 Cycle   6  Pass 1  IDiag  1:
 RMSU=  2.14D-05    CP:  9.91D-01  4.94D-01  8.88D-01  7.69D-01  5.45D-01
 E= -1150.66467970477     Delta-E=       -0.000340885011 Rises=F Damp=F
 DIIS: error= 1.45D-04 at cycle   6 NSaved=   6.
 NSaved= 6 IEnMin= 6 EnMin= -1150.66467970477     IErMin= 6 ErrMin= 1.45D-04
 ErrMax= 1.45D-04  0.00D+00 EMaxC= 1.00D-01 BMatC= 2.52D-05 BMatP= 4.78D-04
 IDIUse=3 WtCom= 9.99D-01 WtEn= 1.45D-03
 Coeff-Com: -0.622D-02 0.113D-01 0.338D-01 0.123D+00 0.255D+00 0.583D+00
 Coeff-En:   0.000D+00 0.000D+00 0.000D+00 0.000D+00 0.000D+00 0.100D+01
 Coeff:     -0.621D-02 0.113D-01 0.338D-01 0.123D+00 0.255D+00 0.584D+00
 Gap=     0.243 Goal=   None    Shift=    0.000
 RMSDP=9.75D-06 MaxDP=6.65D-04 DE=-3.41D-04 OVMax= 1.15D-03

 Cycle   7  Pass 1  IDiag  1:
 RMSU=  6.40D-06    CP:  9.92D-01  4.95D-01  8.89D-01  7.59D-01  5.87D-01
                    CP:  7.63D-01
 E= -1150.66469820996     Delta-E=       -0.000018505189 Rises=F Damp=F
 DIIS: error= 4.50D-05 at cycle   7 NSaved=   7.
 NSaved= 7 IEnMin= 7 EnMin= -1150.66469820996     IErMin= 7 ErrMin= 4.50D-05
 ErrMax= 4.50D-05  0.00D+00 EMaxC= 1.00D-01 BMatC= 1.67D-06 BMatP= 2.52D-05
 IDIUse=1 WtCom= 1.00D+00 WtEn= 0.00D+00
 Coeff-Com: -0.156D-02 0.202D-02 0.599D-02 0.298D-01 0.793D-01 0.268D+00
 Coeff-Com:  0.617D+00
 Coeff:     -0.156D-02 0.202D-02 0.599D-02 0.298D-01 0.793D-01 0.268D+00
 Coeff:      0.617D+00
 Gap=     0.243 Goal=   None    Shift=    0.000
 RMSDP=2.75D-06 MaxDP=2.68D-04 DE=-1.85D-05 OVMax= 2.12D-04

 Cycle   8  Pass 1  IDiag  1:
 RMSU=  1.60D-06    CP:  9.91D-01  4.95D-01  8.89D-01  7.63D-01  5.88D-01
                    CP:  7.90D-01  8.49D-01
 E= -1150.66469935176     Delta-E=       -0.000001141799 Rises=F Damp=F
 DIIS: error= 1.03D-05 at cycle   8 NSaved=   8.
 NSaved= 8 IEnMin= 8 EnMin= -1150.66469935176     IErMin= 8 ErrMin= 1.03D-05
 ErrMax= 1.03D-05  0.00D+00 EMaxC= 1.00D-01 BMatC= 1.57D-07 BMatP= 1.67D-06
 IDIUse=1 WtCom= 1.00D+00 WtEn= 0.00D+00
 Coeff-Com: -0.121D-03-0.420D-04-0.553D-03 0.113D-02 0.956D-02 0.582D-01
 Coeff-Com:  0.277D+00 0.655D+00
 Coeff:     -0.121D-03-0.420D-04-0.553D-03 0.113D-02 0.956D-02 0.582D-01
 Coeff:      0.277D+00 0.655D+00
 Gap=     0.243 Goal=   None    Shift=    0.000
 RMSDP=7.57D-07 MaxDP=6.77D-05 DE=-1.14D-06 OVMax= 8.65D-05

 Cycle   9  Pass 1  IDiag  1:
 RMSU=  5.24D-07    CP:  9.91D-01  4.95D-01  8.89D-01  7.63D-01  5.89D-01
                    CP:  8.04D-01  8.81D-01  8.04D-01
 E= -1150.66469946274     Delta-E=       -0.000000110979 Rises=F Damp=F
 DIIS: error= 4.19D-06 at cycle   9 NSaved=   9.
 NSaved= 9 IEnMin= 9 EnMin= -1150.66469946274     IErMin= 9 ErrMin= 4.19D-06
 ErrMax= 4.19D-06  0.00D+00 EMaxC= 1.00D-01 BMatC= 1.69D-08 BMatP= 1.57D-07
 IDIUse=1 WtCom= 1.00D+00 WtEn= 0.00D+00
 Coeff-Com:  0.812D-04-0.208D-03-0.819D-03-0.215D-02-0.289D-02 0.986D-03
 Coeff-Com:  0.648D-01 0.312D+00 0.628D+00
 Coeff:      0.812D-04-0.208D-03-0.819D-03-0.215D-02-0.289D-02 0.986D-03
 Coeff:      0.648D-01 0.312D+00 0.628D+00
 Gap=     0.243 Goal=   None    Shift=    0.000
 RMSDP=2.04D-07 MaxDP=1.40D-05 DE=-1.11D-07 OVMax= 3.00D-05

 Cycle  10  Pass 1  IDiag  1:
 RMSU=  1.13D-07    CP:  9.91D-01  4.95D-01  8.89D-01  7.63D-01  5.88D-01
                    CP:  8.05D-01  8.95D-01  8.60D-01  8.13D-01
 E= -1150.66469947682     Delta-E=       -0.000000014086 Rises=F Damp=F
 DIIS: error= 5.88D-07 at cycle  10 NSaved=  10.
 NSaved=10 IEnMin=10 EnMin= -1150.66469947682     IErMin=10 ErrMin= 5.88D-07
 ErrMax= 5.88D-07  0.00D+00 EMaxC= 1.00D-01 BMatC= 5.64D-10 BMatP= 1.69D-08
 IDIUse=1 WtCom= 1.00D+00 WtEn= 0.00D+00
 Coeff-Com:  0.299D-04-0.713D-04-0.299D-03-0.837D-03-0.138D-02-0.130D-02
 Coeff-Com:  0.174D-01 0.104D+00 0.246D+00 0.637D+00
 Coeff:      0.299D-04-0.713D-04-0.299D-03-0.837D-03-0.138D-02-0.130D-02
 Coeff:      0.174D-01 0.104D+00 0.246D+00 0.637D+00
 Gap=     0.243 Goal=   None    Shift=    0.000
 RMSDP=5.38D-08 MaxDP=3.20D-06 DE=-1.41D-08 OVMax= 9.67D-06

 Cycle  11  Pass 1  IDiag  1:
 RMSU=  4.37D-08    CP:  9.91D-01  4.95D-01  8.89D-01  7.63D-01  5.88D-01
                    CP:  8.05D-01  8.98D-01  8.68D-01  8.27D-01  8.97D-01
 E= -1150.66469947722     Delta-E=       -0.000000000396 Rises=F Damp=F
 DIIS: error= 3.85D-07 at cycle  11 NSaved=  11.
 NSaved=11 IEnMin=11 EnMin= -1150.66469947722     IErMin=11 ErrMin= 3.85D-07
 ErrMax= 3.85D-07  0.00D+00 EMaxC= 1.00D-01 BMatC= 1.83D-10 BMatP= 5.64D-10
 IDIUse=1 WtCom= 1.00D+00 WtEn= 0.00D+00
 Coeff-Com:  0.343D-05-0.471D-05-0.391D-04-0.111D-03-0.306D-03-0.920D-03
 Coeff-Com: -0.209D-02 0.249D-02 0.260D-01 0.371D+00 0.604D+00
 Coeff:      0.343D-05-0.471D-05-0.391D-04-0.111D-03-0.306D-03-0.920D-03
 Coeff:     -0.209D-02 0.249D-02 0.260D-01 0.371D+00 0.604D+00
 Gap=     0.243 Goal=   None    Shift=    0.000
 RMSDP=2.12D-08 MaxDP=2.07D-06 DE=-3.96D-10 OVMax= 3.77D-06

 Cycle  12  Pass 1  IDiag  1:
 RMSU=  1.15D-08    CP:  9.91D-01  4.95D-01  8.89D-01  7.63D-01  5.88D-01
                    CP:  8.05D-01  8.98D-01  8.72D-01  8.35D-01  9.78D-01
                    CP:  7.93D-01
 E= -1150.66469947736     Delta-E=       -0.000000000141 Rises=F Damp=F
 DIIS: error= 6.36D-08 at cycle  12 NSaved=  12.
 NSaved=12 IEnMin=12 EnMin= -1150.66469947736     IErMin=12 ErrMin= 6.36D-08
 ErrMax= 6.36D-08  0.00D+00 EMaxC= 1.00D-01 BMatC= 4.97D-12 BMatP= 1.83D-10
 IDIUse=1 WtCom= 1.00D+00 WtEn= 0.00D+00
 Coeff-Com: -0.642D-06 0.292D-05 0.195D-05 0.109D-04-0.379D-04-0.234D-03
 Coeff-Com: -0.196D-02-0.638D-02-0.849D-02 0.945D-01 0.204D+00 0.718D+00
 Coeff:     -0.642D-06 0.292D-05 0.195D-05 0.109D-04-0.379D-04-0.234D-03
 Coeff:     -0.196D-02-0.638D-02-0.849D-02 0.945D-01 0.204D+00 0.718D+00
 Gap=     0.243 Goal=   None    Shift=    0.000
 RMSDP=5.68D-09 MaxDP=3.41D-07 DE=-1.41D-10 OVMax= 5.67D-07

 Error on total polarization charges =  0.00855
 SCF Done:  E(RPBE1PBE) =  -1150.66469948     A.U. after   12 cycles
            NFock= 12  Conv=0.57D-08     -V/T= 2.0036
 KE= 1.146524360378D+03 PE=-5.704491776076D+03 EE= 1.914827487179D+03
 Leave Link  502 at Thu Aug 29 16:14:38 2024, MaxMem=  8589934592 cpu:            1964.6 elap:              82.3
 (Enter /share/apps/g16.b01_avx2/g16/l601.exe)
 Copying SCF densities to generalized density rwf, IOpCl= 0 IROHF=0.

 **********************************************************************

            Population analysis using the SCF Density.

 **********************************************************************

 Orbital symmetries:
       Occupied  (A) (A) (A) (A) (A) (A) (A) (A) (A) (A) (A) (A)
                 (A) (A) (A) (A) (A) (A) (A) (A) (A) (A) (A) (A)
                 (A) (A) (A) (A) (A) (A) (A) (A) (A) (A) (A) (A)
                 (A) (A) (A) (A) (A) (A) (A) (A) (A) (A) (A) (A)
                 (A) (A) (A) (A) (A) (A) (A) (A) (A) (A) (A) (A)
                 (A) (A) (A) (A) (A) (A) (A) (A) (A)
       Virtual   (A) (A) (A) (A) (A) (A) (A) (A) (A) (A) (A) (A)
                 (A) (A) (A) (A) (A) (A) (A) (A) (A) (A) (A) (A)
                 (A) (A) (A) (A) (A) (A) (A) (A) (A) (A) (A) (A)
                 (A) (A) (A) (A) (A) (A) (A) (A) (A) (A) (A) (A)
                 (A) (A) (A) (A) (A) (A) (A) (A) (A) (A) (A) (A)
                 (A) (A) (A) (A) (A) (A) (A) (A) (A) (A) (A) (A)
                 (A) (A) (A) (A) (A) (A) (A) (A) (A) (A) (A) (A)
                 (A) (A) (A) (A) (A) (A) (A) (A) (A) (A) (A) (A)
                 (A) (A) (A) (A) (A) (A) (A) (A) (A) (A) (A) (A)
                 (A) (A) (A) (A) (A) (A) (A) (A) (A) (A) (A) (A)
                 (A) (A) (A) (A) (A) (A) (A) (A) (A) (A) (A) (A)
                 (A) (A) (A) (A) (A) (A) (A) (A) (A) (A) (A) (A)
                 (A) (A) (A) (A) (A) (A) (A) (A) (A) (A) (A) (A)
                 (A) (A) (A) (A) (A) (A) (A) (A) (A) (A) (A) (A)
                 (A) (A) (A) (A) (A) (A) (A) (A) (A) (A) (A) (A)
                 (A) (A) (A) (A) (A) (A) (A) (A) (A) (A) (A) (A)
                 (A) (A) (A) (A) (A) (A) (A) (A) (A) (A) (A) (A)
                 (A) (A) (A) (A) (A) (A) (A) (A) (A) (A) (A) (A)
                 (A) (A) (A) (A) (A) (A) (A) (A) (A) (A) (A) (A)
                 (A) (A) (A) (A) (A) (A) (A) (A) (A) (A) (A) (A)
                 (A) (A) (A) (A) (A) (A) (A) (A) (A) (A) (A) (A)
                 (A) (A) (A) (A) (A) (A) (A) (A) (A) (A) (A) (A)
                 (A) (A) (A) (A) (A) (A) (A) (A) (A) (A) (A) (A)
                 (A) (A) (A) (A) (A) (A) (A) (A) (A) (A) (A) (A)
                 (A) (A) (A) (A) (A) (A) (A) (A) (A) (A) (A) (A)
                 (A) (A) (A) (A) (A) (A) (A) (A) (A) (A) (A) (A)
                 (A) (A) (A) (A) (A) (A) (A) (A) (A) (A) (A) (A)
                 (A) (A) (A) (A) (A) (A) (A) (A) (A) (A) (A) (A)
                 (A) (A) (A) (A) (A) (A) (A) (A) (A) (A) (A) (A)
                 (A) (A) (A) (A) (A) (A) (A) (A) (A) (A) (A) (A)
                 (A) (A) (A) (A) (A) (A) (A) (A) (A) (A) (A) (A)
                 (A) (A) (A) (A) (A) (A) (A) (A) (A) (A) (A) (A)
                 (A) (A) (A) (A) (A) (A) (A) (A) (A) (A) (A) (A)
                 (A) (A) (A) (A) (A) (A) (A) (A) (A) (A) (A) (A)
                 (A) (A) (A) (A) (A) (A) (A) (A) (A) (A) (A) (A)
                 (A) (A) (A) (A) (A) (A) (A) (A) (A) (A) (A) (A)
                 (A) (A) (A) (A) (A) (A) (A) (A) (A) (A) (A) (A)
                 (A) (A) (A) (A) (A) (A) (A) (A) (A) (A) (A) (A)
                 (A) (A) (A) (A) (A) (A) (A) (A) (A) (A) (A) (A)
                 (A) (A) (A) (A) (A) (A) (A) (A) (A) (A) (A) (A)
                 (A) (A) (A) (A) (A) (A) (A) (A) (A) (A) (A) (A)
                 (A) (A) (A) (A) (A) (A) (A) (A) (A) (A) (A) (A)
                 (A) (A) (A) (A) (A) (A) (A) (A) (A) (A) (A) (A)
                 (A) (A) (A) (A) (A) (A) (A) (A) (A) (A) (A) (A)
                 (A) (A) (A)
 The electronic state is 1-A.
 Alpha  occ. eigenvalues --  -24.81620 -24.81493 -24.81446 -24.81400 -24.80600
 Alpha  occ. eigenvalues --  -24.76644 -19.23374 -19.15621 -14.47637 -10.36607
 Alpha  occ. eigenvalues --  -10.34110 -10.33940 -10.33841 -10.33482 -10.33310
 Alpha  occ. eigenvalues --  -10.30922 -10.29542 -10.26889  -1.30771  -1.30061
 Alpha  occ. eigenvalues --   -1.29380  -1.28635  -1.28225  -1.25047  -1.11139
 Alpha  occ. eigenvalues --   -1.03836  -0.99195  -0.92489  -0.80756  -0.80648
 Alpha  occ. eigenvalues --   -0.76990  -0.73793  -0.69363  -0.69124  -0.63694
 Alpha  occ. eigenvalues --   -0.62372  -0.62109  -0.59817  -0.59152  -0.57362
 Alpha  occ. eigenvalues --   -0.56988  -0.56468  -0.55383  -0.55093  -0.54036
 Alpha  occ. eigenvalues --   -0.52546  -0.51959  -0.51488  -0.51014  -0.49730
 Alpha  occ. eigenvalues --   -0.49378  -0.48626  -0.47761  -0.47210  -0.46870
 Alpha  occ. eigenvalues --   -0.44341  -0.44143  -0.43286  -0.42277  -0.41676
 Alpha  occ. eigenvalues --   -0.40991  -0.38778  -0.37295  -0.36494  -0.32824
 Alpha  occ. eigenvalues --   -0.29710  -0.27297  -0.27104  -0.26206
 Alpha virt. eigenvalues --   -0.01935  -0.01148  -0.00972   0.03372   0.06020
 Alpha virt. eigenvalues --    0.07281   0.07641   0.08857   0.09865   0.11686
 Alpha virt. eigenvalues --    0.11728   0.12280   0.12519   0.13779   0.14880
 Alpha virt. eigenvalues --    0.15771   0.16348   0.17671   0.18037   0.18785
 Alpha virt. eigenvalues --    0.19891   0.20208   0.21053   0.21337   0.23182
 Alpha virt. eigenvalues --    0.23843   0.24037   0.25082   0.26160   0.26896
 Alpha virt. eigenvalues --    0.28053   0.29021   0.29180   0.29441   0.29939
 Alpha virt. eigenvalues --    0.30962   0.31614   0.32536   0.33637   0.33807
 Alpha virt. eigenvalues --    0.34723   0.35510   0.36413   0.37202   0.37762
 Alpha virt. eigenvalues --    0.39085   0.39457   0.40086   0.40292   0.40877
 Alpha virt. eigenvalues --    0.41164   0.42053   0.42680   0.43235   0.44075
 Alpha virt. eigenvalues --    0.44176   0.44500   0.45000   0.45707   0.46385
 Alpha virt. eigenvalues --    0.46766   0.47050   0.47732   0.48775   0.49633
 Alpha virt. eigenvalues --    0.50318   0.52351   0.52951   0.53735   0.54518
 Alpha virt. eigenvalues --    0.55641   0.57109   0.57823   0.58923   0.61379
 Alpha virt. eigenvalues --    0.62453   0.62998   0.63638   0.64949   0.65347
 Alpha virt. eigenvalues --    0.66405   0.67615   0.68101   0.70514   0.70779
 Alpha virt. eigenvalues --    0.71583   0.71982   0.73013   0.74345   0.74780
 Alpha virt. eigenvalues --    0.75287   0.77428   0.77754   0.78682   0.80032
 Alpha virt. eigenvalues --    0.80737   0.82533   0.82868   0.83845   0.84879
 Alpha virt. eigenvalues --    0.85222   0.86398   0.86528   0.86934   0.87901
 Alpha virt. eigenvalues --    0.88404   0.89619   0.89815   0.91700   0.92111
 Alpha virt. eigenvalues --    0.94366   0.94931   0.95718   0.97100   0.97799
 Alpha virt. eigenvalues --    0.98726   0.99797   1.00333   1.01552   1.02181
 Alpha virt. eigenvalues --    1.03983   1.04270   1.05053   1.06785   1.08416
 Alpha virt. eigenvalues --    1.10130   1.10405   1.11609   1.13295   1.14084
 Alpha virt. eigenvalues --    1.14765   1.16355   1.17494   1.18608   1.19548
 Alpha virt. eigenvalues --    1.20290   1.22353   1.24209   1.27229   1.28148
 Alpha virt. eigenvalues --    1.29584   1.31456   1.32487   1.34367   1.35123
 Alpha virt. eigenvalues --    1.36941   1.38898   1.39816   1.40702   1.43102
 Alpha virt. eigenvalues --    1.44359   1.45300   1.46402   1.47322   1.47951
 Alpha virt. eigenvalues --    1.49414   1.50566   1.52322   1.54185   1.55119
 Alpha virt. eigenvalues --    1.55542   1.56872   1.57502   1.58917   1.62045
 Alpha virt. eigenvalues --    1.62973   1.64993   1.65455   1.68775   1.70562
 Alpha virt. eigenvalues --    1.72228   1.72668   1.73358   1.74320   1.75353
 Alpha virt. eigenvalues --    1.76658   1.78193   1.79453   1.80351   1.81798
 Alpha virt. eigenvalues --    1.82326   1.83979   1.85307   1.85964   1.87250
 Alpha virt. eigenvalues --    1.90075   1.90337   1.93527   1.94396   1.95419
 Alpha virt. eigenvalues --    1.96134   1.96323   1.98115   1.99463   2.00361
 Alpha virt. eigenvalues --    2.02235   2.02952   2.04122   2.04984   2.05818
 Alpha virt. eigenvalues --    2.06583   2.07843   2.08336   2.10172   2.12501
 Alpha virt. eigenvalues --    2.14655   2.15398   2.16099   2.17441   2.19388
 Alpha virt. eigenvalues --    2.19864   2.20906   2.21728   2.21917   2.23166
 Alpha virt. eigenvalues --    2.26054   2.27003   2.28028   2.30394   2.31766
 Alpha virt. eigenvalues --    2.32288   2.33823   2.34313   2.36113   2.37873
 Alpha virt. eigenvalues --    2.38811   2.39638   2.42318   2.42761   2.44564
 Alpha virt. eigenvalues --    2.45053   2.46699   2.47277   2.49575   2.50437
 Alpha virt. eigenvalues --    2.52132   2.52977   2.56010   2.57212   2.57429
 Alpha virt. eigenvalues --    2.58203   2.58280   2.60905   2.62112   2.62610
 Alpha virt. eigenvalues --    2.63304   2.63834   2.65242   2.66059   2.66176
 Alpha virt. eigenvalues --    2.69479   2.71190   2.72136   2.74717   2.76560
 Alpha virt. eigenvalues --    2.77703   2.78652   2.79326   2.80358   2.81541
 Alpha virt. eigenvalues --    2.82387   2.83344   2.85019   2.85351   2.85623
 Alpha virt. eigenvalues --    2.87814   2.88879   2.89704   2.90538   2.91253
 Alpha virt. eigenvalues --    2.91655   2.92590   2.94384   2.94991   2.95566
 Alpha virt. eigenvalues --    2.96055   2.97961   2.99086   3.00968   3.01109
 Alpha virt. eigenvalues --    3.03123   3.03349   3.05876   3.07124   3.07230
 Alpha virt. eigenvalues --    3.09012   3.10626   3.11263   3.11871   3.13589
 Alpha virt. eigenvalues --    3.13894   3.15566   3.17146   3.17804   3.18709
 Alpha virt. eigenvalues --    3.18925   3.19611   3.20279   3.21004   3.22193
 Alpha virt. eigenvalues --    3.22666   3.22783   3.23659   3.24727   3.26443
 Alpha virt. eigenvalues --    3.27459   3.30012   3.30965   3.31564   3.32579
 Alpha virt. eigenvalues --    3.35849   3.36114   3.37313   3.39478   3.41369
 Alpha virt. eigenvalues --    3.42541   3.43386   3.44988   3.45217   3.45708
 Alpha virt. eigenvalues --    3.46254   3.47101   3.47539   3.49707   3.50541
 Alpha virt. eigenvalues --    3.50802   3.52548   3.53550   3.55468   3.55656
 Alpha virt. eigenvalues --    3.57434   3.60116   3.60652   3.62248   3.63535
 Alpha virt. eigenvalues --    3.63777   3.67254   3.70401   3.71902   3.72536
 Alpha virt. eigenvalues --    3.74939   3.76605   3.77489   3.79997   3.81868
 Alpha virt. eigenvalues --    3.82384   3.85091   3.85365   3.86558   3.88207
 Alpha virt. eigenvalues --    3.89360   3.92951   3.95584   3.97915   3.98817
 Alpha virt. eigenvalues --    4.00706   4.02935   4.05039   4.05561   4.07291
 Alpha virt. eigenvalues --    4.09242   4.10711   4.13164   4.14268   4.14474
 Alpha virt. eigenvalues --    4.15288   4.15664   4.16980   4.19119   4.20785
 Alpha virt. eigenvalues --    4.21958   4.22561   4.24058   4.29083   4.31697
 Alpha virt. eigenvalues --    4.32779   4.36321   4.38839   4.39675   4.42082
 Alpha virt. eigenvalues --    4.43804   4.45365   4.47909   4.50024   4.52610
 Alpha virt. eigenvalues --    4.57281   4.60940   4.62546   4.68583   4.70931
 Alpha virt. eigenvalues --    4.79300   4.80248   4.82351   4.84988   4.85807
 Alpha virt. eigenvalues --    4.87322   4.89687   4.91514   4.95193   4.96875
 Alpha virt. eigenvalues --    5.01142   5.08513   5.09183   5.15055   5.16135
 Alpha virt. eigenvalues --    5.21885   5.24742   5.28049   5.28735   5.31359
 Alpha virt. eigenvalues --    5.37663   5.39416   5.42654   5.45858   5.46286
 Alpha virt. eigenvalues --    5.50100   5.55018   5.58430   5.60819   5.67164
 Alpha virt. eigenvalues --    5.70404   5.75330   5.84816   5.86420   5.93255
 Alpha virt. eigenvalues --    6.05337   6.23176   6.31248   6.37721   6.40633
 Alpha virt. eigenvalues --    6.42116   6.50590   6.59875   6.73118   6.78028
 Alpha virt. eigenvalues --    6.84874   6.85202   6.85526   6.85724   6.86183
 Alpha virt. eigenvalues --    6.86496   6.86991   6.87306   6.87402   6.88574
 Alpha virt. eigenvalues --    6.89940   6.91115   6.91639   6.94171   6.96416
 Alpha virt. eigenvalues --    6.97829   6.99439   7.00954   7.01101   7.02883
 Alpha virt. eigenvalues --    7.04956   7.06893   7.06931   7.08761   7.10500
 Alpha virt. eigenvalues --    7.12022   7.14751   7.17252   7.18511   7.20316
 Alpha virt. eigenvalues --    7.24180   7.26873   7.28242   7.29677   7.29714
 Alpha virt. eigenvalues --    7.30467   7.32725   7.33946   7.35771   7.36790
 Alpha virt. eigenvalues --    7.41359   7.43776   7.46846   7.50783   7.66966
 Alpha virt. eigenvalues --    7.67558   7.75683   8.09019   8.30811   8.33344
 Alpha virt. eigenvalues --    8.35602   8.37560   8.41614   8.41943   8.43094
 Alpha virt. eigenvalues --    8.43652   8.54079   8.56578   8.58975   8.69486
 Alpha virt. eigenvalues --    8.72933   8.76403   8.77358   8.80105   8.80950
 Alpha virt. eigenvalues --    8.82967   8.87472   8.88980   8.89570   8.93111
 Alpha virt. eigenvalues --    8.94608   9.00344   9.02245   9.05928   9.07730
 Alpha virt. eigenvalues --    9.09934   9.12870   9.40158  22.28239  22.42530
 Alpha virt. eigenvalues --   22.62803  22.97210  22.98382  23.01584  23.13465
 Alpha virt. eigenvalues --   23.15150  23.75527  32.28461  44.21280  44.56991
 Alpha virt. eigenvalues --   57.20095  57.34790  57.40284  57.46420  57.53824
 Alpha virt. eigenvalues --   57.65109
          Condensed to atoms (all electrons):
               1          2          3          4          5          6
     1  H    0.412736   0.005561  -0.005307   0.339838  -0.018890  -0.017262
     2  O    0.005561   8.045290   0.669029  -0.093867   0.004880  -0.012931
     3  C   -0.005307   0.669029   4.978023   0.072904   0.000885  -0.037396
     4  N    0.339838  -0.093867   0.072904   6.325549   0.342724   0.275303
     5  H   -0.018890   0.004880   0.000885   0.342724   0.406180  -0.022417
     6  C   -0.017262  -0.012931  -0.037396   0.275303  -0.022417   4.917946
     7  H    0.005891   0.000178  -0.007506  -0.030504  -0.005302   0.411679
     8  H   -0.003568   0.018109   0.005211  -0.039520   0.006452   0.400137
     9  H   -0.006820  -0.000186   0.004101  -0.019110  -0.003657   0.401214
    10  C    0.005852  -0.065356   0.282510  -0.024326  -0.005373   0.013892
    11  O   -0.003643  -0.084664   0.157444  -0.030373   0.002613   0.005010
    12  C   -0.004941  -0.039028  -0.142389   0.032439  -0.000509  -0.000719
    13  C    0.001598   0.036293   0.004390  -0.019682   0.002175   0.000581
    14  C    0.000247   0.033533  -0.028730   0.006832  -0.000475  -0.000101
    15  C   -0.000991  -0.004603   0.002652   0.000106   0.000020   0.000094
    16  C   -0.000028  -0.005364   0.000782   0.000283  -0.000034  -0.000009
    17  C    0.000028   0.000622   0.000213  -0.000144   0.000007  -0.000000
    18  F    0.010130  -0.000629  -0.000700  -0.001848   0.000159  -0.000087
    19  F   -0.000002  -0.001310   0.001646  -0.000045  -0.000001   0.000005
    20  F   -0.000017  -0.000001   0.000029  -0.000001  -0.000000   0.000000
    21  F   -0.000000   0.000000   0.000015  -0.000000   0.000000   0.000000
    22  F    0.000000  -0.000000  -0.000002   0.000000   0.000000  -0.000000
    23  F   -0.000174   0.000113  -0.074125   0.003168  -0.000023  -0.000563
    24  H   -0.000556   0.005870  -0.038971   0.013015  -0.000248  -0.002650
    25  H   -0.000559   0.002646  -0.069412   0.001474   0.000264   0.003623
               7          8          9         10         11         12
     1  H    0.005891  -0.003568  -0.006820   0.005852  -0.003643  -0.004941
     2  O    0.000178   0.018109  -0.000186  -0.065356  -0.084664  -0.039028
     3  C   -0.007506   0.005211   0.004101   0.282510   0.157444  -0.142389
     4  N   -0.030504  -0.039520  -0.019110  -0.024326  -0.030373   0.032439
     5  H   -0.005302   0.006452  -0.003657  -0.005373   0.002613  -0.000509
     6  C    0.411679   0.400137   0.401214   0.013892   0.005010  -0.000719
     7  H    0.486318  -0.019513  -0.016873   0.006881  -0.000098   0.000045
     8  H   -0.019513   0.487812  -0.018812  -0.004694   0.000788  -0.000745
     9  H   -0.016873  -0.018812   0.483760  -0.000460  -0.000023   0.000100
    10  C    0.006881  -0.004694  -0.000460   4.727494  -0.046618   0.001235
    11  O   -0.000098   0.000788  -0.000023  -0.046618   8.095675   0.283747
    12  C    0.000045  -0.000745   0.000100   0.001235   0.283747   5.512065
    13  C    0.000013   0.000241  -0.000102   0.003664  -0.031140   0.075907
    14  C   -0.000004  -0.000165   0.000006   0.000595  -0.033316   0.200733
    15  C   -0.000001   0.000013  -0.000002  -0.000422   0.009450   0.033175
    16  C   -0.000001   0.000004   0.000001   0.000238   0.010976  -0.011346
    17  C    0.000000   0.000003  -0.000001  -0.000019   0.001141  -0.002624
    18  F   -0.000011   0.000011   0.000017   0.000057  -0.001180  -0.038464
    19  F    0.000000   0.000001  -0.000000   0.002864   0.001880  -0.068413
    20  F    0.000000  -0.000000   0.000000   0.000000  -0.000060   0.009293
    21  F   -0.000000  -0.000000  -0.000000  -0.000004  -0.000065   0.009698
    22  F   -0.000000  -0.000000   0.000000   0.000000  -0.000001  -0.001074
    23  F   -0.000031   0.000062  -0.000003   0.284436   0.003696  -0.001582
    24  H   -0.000427   0.000173   0.000112   0.390843   0.000532  -0.002970
    25  H   -0.004249  -0.000266   0.000515   0.438949   0.006835   0.000696
              13         14         15         16         17         18
     1  H    0.001598   0.000247  -0.000991  -0.000028   0.000028   0.010130
     2  O    0.036293   0.033533  -0.004603  -0.005364   0.000622  -0.000629
     3  C    0.004390  -0.028730   0.002652   0.000782   0.000213  -0.000700
     4  N   -0.019682   0.006832   0.000106   0.000283  -0.000144  -0.001848
     5  H    0.002175  -0.000475   0.000020  -0.000034   0.000007   0.000159
     6  C    0.000581  -0.000101   0.000094  -0.000009  -0.000000  -0.000087
     7  H    0.000013  -0.000004  -0.000001  -0.000001   0.000000  -0.000011
     8  H    0.000241  -0.000165   0.000013   0.000004   0.000003   0.000011
     9  H   -0.000102   0.000006  -0.000002   0.000001  -0.000001   0.000017
    10  C    0.003664   0.000595  -0.000422   0.000238  -0.000019   0.000057
    11  O   -0.031140  -0.033316   0.009450   0.010976   0.001141  -0.001180
    12  C    0.075907   0.200733   0.033175  -0.011346  -0.002624  -0.038464
    13  C    5.363107   0.038323   0.245810  -0.030732  -0.053821   0.242094
    14  C    0.038323   5.151743  -0.009608   0.302260  -0.076859   0.005913
    15  C    0.245810  -0.009608   5.015058  -0.040883   0.385389  -0.030156
    16  C   -0.030732   0.302260  -0.040883   5.035679   0.378794  -0.000331
    17  C   -0.053821  -0.076859   0.385389   0.378794   4.998638   0.006831
    18  F    0.242094   0.005913  -0.030156  -0.000331   0.006831   8.997930
    19  F    0.005717   0.297889  -0.001059  -0.038077   0.007374  -0.000031
    20  F   -0.054594  -0.001305   0.294471   0.007128  -0.045699   0.000640
    21  F   -0.001009  -0.052380   0.007303   0.290648  -0.045917   0.000000
    22  F    0.009003   0.008338  -0.046280  -0.045697   0.284553  -0.000027
    23  F   -0.000257   0.006947   0.000012   0.001198  -0.000017   0.000000
    24  H   -0.001926   0.000781   0.000060   0.000056  -0.000016  -0.000001
    25  H    0.000093   0.000149  -0.000008   0.000067   0.000002   0.000000
              19         20         21         22         23         24
     1  H   -0.000002  -0.000017  -0.000000   0.000000  -0.000174  -0.000556
     2  O   -0.001310  -0.000001   0.000000  -0.000000   0.000113   0.005870
     3  C    0.001646   0.000029   0.000015  -0.000002  -0.074125  -0.038971
     4  N   -0.000045  -0.000001  -0.000000   0.000000   0.003168   0.013015
     5  H   -0.000001  -0.000000   0.000000   0.000000  -0.000023  -0.000248
     6  C    0.000005   0.000000   0.000000  -0.000000  -0.000563  -0.002650
     7  H    0.000000   0.000000  -0.000000  -0.000000  -0.000031  -0.000427
     8  H    0.000001  -0.000000  -0.000000  -0.000000   0.000062   0.000173
     9  H   -0.000000   0.000000  -0.000000   0.000000  -0.000003   0.000112
    10  C    0.002864   0.000000  -0.000004   0.000000   0.284436   0.390843
    11  O    0.001880  -0.000060  -0.000065  -0.000001   0.003696   0.000532
    12  C   -0.068413   0.009293   0.009698  -0.001074  -0.001582  -0.002970
    13  C    0.005717  -0.054594  -0.001009   0.009003  -0.000257  -0.001926
    14  C    0.297889  -0.001305  -0.052380   0.008338   0.006947   0.000781
    15  C   -0.001059   0.294471   0.007303  -0.046280   0.000012   0.000060
    16  C   -0.038077   0.007128   0.290648  -0.045697   0.001198   0.000056
    17  C    0.007374  -0.045699  -0.045917   0.284553  -0.000017  -0.000016
    18  F   -0.000031   0.000640   0.000000  -0.000027   0.000000  -0.000001
    19  F    8.966160   0.000000   0.000472  -0.000028  -0.003151  -0.000203
    20  F    0.000000   8.963857  -0.000028   0.001153   0.000000  -0.000000
    21  F    0.000472  -0.000028   8.965613   0.001101  -0.000000   0.000000
    22  F   -0.000028   0.001153   0.001101   8.962124   0.000000  -0.000000
    23  F   -0.003151   0.000000  -0.000000   0.000000   9.083919  -0.039387
    24  H   -0.000203  -0.000000   0.000000  -0.000000  -0.039387   0.608460
    25  H   -0.000025   0.000000  -0.000000  -0.000000  -0.036610  -0.051496
              25
     1  H   -0.000559
     2  O    0.002646
     3  C   -0.069412
     4  N    0.001474
     5  H    0.000264
     6  C    0.003623
     7  H   -0.004249
     8  H   -0.000266
     9  H    0.000515
    10  C    0.438949
    11  O    0.006835
    12  C    0.000696
    13  C    0.000093
    14  C    0.000149
    15  C   -0.000008
    16  C    0.000067
    17  C    0.000002
    18  F    0.000000
    19  F   -0.000025
    20  F    0.000000
    21  F   -0.000000
    22  F   -0.000000
    23  F   -0.036610
    24  H   -0.051496
    25  H    0.577629
 Mulliken charges:
               1
     1  H    0.280878
     2  O   -0.514184
     3  C    0.224704
     4  N   -0.154216
     5  H    0.290570
     6  C   -0.335349
     7  H    0.173515
     8  H    0.168268
     9  H    0.176223
    10  C   -0.012239
    11  O   -0.348606
    12  C    0.155672
    13  C    0.164252
    14  C    0.148653
    15  C    0.140399
    16  C    0.144387
    17  C    0.161523
    18  F   -0.190319
    19  F   -0.171662
    20  F   -0.174866
    21  F   -0.175447
    22  F   -0.173164
    23  F   -0.227628
    24  H    0.118949
    25  H    0.129684
 Sum of Mulliken charges =  -0.00000
 Mulliken charges with hydrogens summed into heavy atoms:
               1
     2  O   -0.514184
     3  C    0.224704
     4  N    0.417232
     6  C    0.182657
    10  C    0.236395
    11  O   -0.348606
    12  C    0.155672
    13  C    0.164252
    14  C    0.148653
    15  C    0.140399
    16  C    0.144387
    17  C    0.161523
    18  F   -0.190319
    19  F   -0.171662
    20  F   -0.174866
    21  F   -0.175447
    22  F   -0.173164
    23  F   -0.227628
 Electronic spatial extent (au):  <R**2>=           4582.3630
 Charge=             -0.0000 electrons
 Dipole moment (field-independent basis, Debye):
    X=              8.2486    Y=             -6.6632    Z=             -2.6079  Tot=             10.9197
 Quadrupole moment (field-independent basis, Debye-Ang):
   XX=            -71.9692   YY=           -101.2752   ZZ=           -101.3054
   XY=            -17.9984   XZ=             -2.5663   YZ=             -1.5655
 Traceless Quadrupole moment (field-independent basis, Debye-Ang):
   XX=             19.5474   YY=             -9.7586   ZZ=             -9.7888
   XY=            -17.9984   XZ=             -2.5663   YZ=             -1.5655
 Octapole moment (field-independent basis, Debye-Ang**2):
  XXX=            155.2727  YYY=            -25.1268  ZZZ=             -9.6251  XYY=             24.3357
  XXY=            -47.4317  XXZ=            -12.7488  XZZ=             -9.4670  YZZ=             -1.9382
  YYZ=              3.4741  XYZ=             -1.3160
 Hexadecapole moment (field-independent basis, Debye-Ang**3):
 XXXX=          -3139.3214 YYYY=          -1365.9359 ZZZZ=           -292.1575 XXXY=           -135.3418
 XXXZ=              2.9566 YYYX=            -72.7615 YYYZ=              0.9199 ZZZX=            -42.9692
 ZZZY=              5.1229 XXYY=           -774.3628 XXZZ=           -615.0533 YYZZ=           -261.6586
 XXYZ=            -11.3234 YYXZ=              3.8005 ZZXY=             -4.1417
 N-N= 1.492475229041D+03 E-N=-5.704491765321D+03  KE= 1.146524360378D+03
 No NMR shielding tensors so no spin-rotation constants.
 Leave Link  601 at Thu Aug 29 16:14:38 2024, MaxMem=  8589934592 cpu:               4.4 elap:               0.2
 (Enter /share/apps/g16.b01_avx2/g16/l701.exe)
 ... and contract with generalized density number  0.
 Compute integral first derivatives.
 R6Disp: Adding Grimme-D3 dispersion energy 1st derivatives to the gradient.
   1 Symmetry operations used in ECPInt.
 ECPInt:  NShTT=   25651 NPrTT=   81420 LenC2=   22500 LenP2D=   50980.
 LDataN:  DoStor=T MaxTD1= 7 Len=  274
 D1PCM: PCM CHGder 1st derivatives, ID1Alg=3 FixD1E=F DoIter=F DoCFld=F I1PDM=0.
 GePol: Maximum number of non-zero 1st derivatives   =     208
 Leave Link  701 at Thu Aug 29 16:14:39 2024, MaxMem=  8589934592 cpu:              26.7 elap:               1.1
 (Enter /share/apps/g16.b01_avx2/g16/l702.exe)
 L702 exits ... SP integral derivatives will be done elsewhere.
 Leave Link  702 at Thu Aug 29 16:14:39 2024, MaxMem=  8589934592 cpu:               0.3 elap:               0.0
 (Enter /share/apps/g16.b01_avx2/g16/l703.exe)
 Integral derivatives from FoFJK, PRISM(SPDF).
 Compute integral first derivatives, UseDBF=F ICtDFT=           0.
 Calling FoFJK, ICntrl=      2127 FMM=F ISym2X=0 I1Cent= 0 IOpClX= 0 NMat=1 NMatS=1 NMatT=0.
 FoFJK:  IHMeth= 1 ICntrl=    2127 DoSepK=F KAlg= 0 I1Cent=           0 FoldK=F
 IRaf=         0 NMat=       1 IRICut=       1 DoRegI=T DoRafI=F ISym2E= 0 IDoP0=0 IntGTp=1.
 FoFCou: FMM=F IPFlag=           0 FMFlag=      100000 FMFlg1=         800
         NFxFlg=           0 DoJE=F BraDBF=F KetDBF=F FulRan=T
         wScrn=  0.000000 ICntrl=      2127 IOpCl=  0 I1Cent=           0 NGrid=           0
         NMat0=    1 NMatS0=      1 NMatT0=    0 NMatD0=    1 NMtDS0=    0 NMtDT0=    0
 Symmetry not used in FoFCou.
 Leave Link  703 at Thu Aug 29 16:15:16 2024, MaxMem=  8589934592 cpu:             886.6 elap:              37.0
 (Enter /share/apps/g16.b01_avx2/g16/l716.exe)
 Dipole        = 3.24524354D+00-2.62151930D+00-1.02602071D+00
 ***** Axes restored to original set *****
 -------------------------------------------------------------------
 Center     Atomic                   Forces (Hartrees/Bohr)
 Number     Number              X              Y              Z
 -------------------------------------------------------------------
      1        1           0.001352755   -0.000671367   -0.000378687
      2        8          -0.001826846   -0.004371418   -0.003568593
      3        6           0.010635686    0.016731834    0.006180805
      4        7          -0.003340260   -0.003325648   -0.001365053
      5        1          -0.000024750    0.001006542   -0.000639013
      6        6          -0.000328529    0.000068859    0.000485234
      7        1          -0.000487909    0.000263429    0.000187057
      8        1          -0.000016491   -0.000113649   -0.000081921
      9        1           0.000103347   -0.000139095   -0.000183789
     10        6           0.005096723    0.010156612    0.002895474
     11        8          -0.004691528   -0.002215498    0.000961762
     12        6           0.001254197   -0.000407048    0.000880652
     13        6          -0.001181296    0.000340421    0.000260353
     14        6          -0.001107891   -0.002211916   -0.000457298
     15        6           0.000097226    0.000128866   -0.000105141
     16        6           0.000572871    0.000214161    0.000301325
     17        6           0.000148756   -0.000278272    0.000049131
     18        9          -0.000022533   -0.000258314   -0.000021049
     19        9           0.002505475    0.001946279    0.000184348
     20        9          -0.000165121   -0.000224727   -0.000009109
     21        9          -0.000221659    0.000182757   -0.000121210
     22        9          -0.000204812    0.000068139   -0.000091334
     23        9           0.008833689   -0.020924508   -0.000754660
     24        1          -0.004649148    0.004516540   -0.015289238
     25        1          -0.012331953   -0.000482981    0.010679956
 -------------------------------------------------------------------
 Cartesian Forces:  Max     0.020924508 RMS     0.004817366
 Leave Link  716 at Thu Aug 29 16:15:16 2024, MaxMem=  8589934592 cpu:               0.4 elap:               0.0
 (Enter /share/apps/g16.b01_avx2/g16/l103.exe)

 GradGradGradGradGradGradGradGradGradGradGradGradGradGradGradGradGradGrad
 Berny optimization.
 FormGI is forming the generalized inverse of G from B-inverse, IUseBI=4.
 Internal  Forces:  Max     0.022385398 RMS     0.003337967
 Search for a local minimum.
 Step number   1 out of a maximum of  134
 All quantities printed in internal units (Hartrees-Bohrs-Radians)
 RMS Force = .33380D-02 SwitMx=.10000D-02 MixMth= 1
 Mixed Optimization -- RFO/linear search
 Second derivative matrix not updated -- first step.
 ITU=  0
     Eigenvalues ---    0.00230   0.00230   0.00573   0.00779   0.02203
     Eigenvalues ---    0.02244   0.02255   0.02271   0.02283   0.02295
     Eigenvalues ---    0.02300   0.02303   0.02308   0.02527   0.03506
     Eigenvalues ---    0.04816   0.04998   0.05803   0.06037   0.06156
     Eigenvalues ---    0.06238   0.07895   0.08523   0.10268   0.12363
     Eigenvalues ---    0.16000   0.16000   0.16000   0.16000   0.16000
     Eigenvalues ---    0.16829   0.19450   0.20581   0.21938   0.22372
     Eigenvalues ---    0.24989   0.24996   0.24999   0.24999   0.24999
     Eigenvalues ---    0.25000   0.25000   0.25000   0.25000   0.25000
     Eigenvalues ---    0.27762   0.30894   0.34964   0.34993   0.35112
     Eigenvalues ---    0.35859   0.37230   0.37230   0.43572   0.43846
     Eigenvalues ---    0.44730   0.44797   0.47284   0.47705   0.48368
     Eigenvalues ---    0.48532   0.55021   0.57919   0.58580   0.59782
     Eigenvalues ---    0.59791   0.59852   0.60147   0.87832
 RFO step:  Lambda=-5.72670507D-03 EMin= 2.30000000D-03
 Linear search not attempted -- first point.
 Iteration  1 RMS(Cart)=  0.16257517 RMS(Int)=  0.01036760
 Iteration  2 RMS(Cart)=  0.04447730 RMS(Int)=  0.00044516
 Iteration  3 RMS(Cart)=  0.00081548 RMS(Int)=  0.00008087
 Iteration  4 RMS(Cart)=  0.00000024 RMS(Int)=  0.00008087
 ITry= 1 IFail=0 DXMaxC= 7.56D-01 DCOld= 1.00D+10 DXMaxT= 3.00D-01 DXLimC= 3.00D+00 Rises=F
 Variable       Old X    -DE/DX   Delta X   Delta X   Delta X     New X
                                 (Linear)    (Quad)   (Total)
    R1        1.92290   0.00040   0.00000   0.00088   0.00088   1.92378
    R2        2.33948  -0.00383   0.00000  -0.00433  -0.00433   2.33516
    R3        3.11983  -0.00091   0.00000  -0.00430  -0.00430   3.11553
    R4        2.86215   0.00756   0.00000   0.02402   0.02402   2.88617
    R5        2.92663  -0.00375   0.00000  -0.01325  -0.01325   2.91338
    R6        1.92212   0.00073   0.00000   0.00161   0.00161   1.92373
    R7        2.77602   0.00084   0.00000   0.00231   0.00231   2.77833
    R8        2.05494   0.00014   0.00000   0.00039   0.00039   2.05532
    R9        2.05686  -0.00005   0.00000  -0.00014  -0.00014   2.05672
   R10        2.05733  -0.00016   0.00000  -0.00045  -0.00045   2.05688
   R11        2.55113   0.02239   0.00000   0.04027   0.04027   2.59140
   R12        2.02201   0.01654   0.00000   0.04374   0.04374   2.06575
   R13        2.02201   0.01621   0.00000   0.04288   0.04288   2.06489
   R14        2.52626   0.00179   0.00000   0.00307   0.00307   2.52933
   R15        2.63036  -0.00036   0.00000  -0.00074  -0.00074   2.62963
   R16        2.63185   0.00134   0.00000   0.00295   0.00295   2.63481
   R17        2.61362  -0.00024   0.00000  -0.00060  -0.00060   2.61302
   R18        2.52082  -0.00019   0.00000  -0.00033  -0.00033   2.52049
   R19        2.61392   0.00048   0.00000   0.00108   0.00108   2.61500
   R20        2.51106  -0.00275   0.00000  -0.00456  -0.00456   2.50650
   R21        2.61521  -0.00031   0.00000  -0.00077  -0.00077   2.61444
   R22        2.51058  -0.00027   0.00000  -0.00045  -0.00045   2.51013
   R23        2.61683  -0.00039   0.00000  -0.00083  -0.00083   2.61600
   R24        2.51113  -0.00029   0.00000  -0.00049  -0.00049   2.51065
   R25        2.50824  -0.00021   0.00000  -0.00035  -0.00035   2.50789
    A1        1.92159   0.00376   0.00000   0.02034   0.02011   1.94169
    A2        2.12062  -0.00094   0.00000  -0.00991  -0.00982   2.11080
    A3        2.02049   0.00033   0.00000   0.01148   0.01137   2.03187
    A4        1.86007  -0.00431   0.00000  -0.02696  -0.02701   1.83306
    A5        1.66495   0.00014   0.00000   0.00155   0.00150   1.66645
    A6        1.81661   0.00085   0.00000   0.00308   0.00308   1.81969
    A7        1.80219  -0.00150   0.00000  -0.01589  -0.01587   1.78633
    A8        1.86757  -0.00009   0.00000  -0.00469  -0.00466   1.86291
    A9        1.92409   0.00066   0.00000   0.00284   0.00285   1.92694
   A10        1.92801   0.00051   0.00000   0.00837   0.00833   1.93634
   A11        1.98094   0.00079   0.00000   0.00470   0.00466   1.98560
   A12        1.95203  -0.00047   0.00000   0.00271   0.00263   1.95467
   A13        1.90859   0.00081   0.00000   0.00508   0.00508   1.91367
   A14        1.88136  -0.00009   0.00000  -0.00029  -0.00030   1.88107
   A15        1.92248  -0.00039   0.00000  -0.00278  -0.00278   1.91970
   A16        1.92006  -0.00021   0.00000  -0.00032  -0.00032   1.91974
   A17        1.91134  -0.00029   0.00000  -0.00220  -0.00219   1.90915
   A18        1.91981   0.00017   0.00000   0.00058   0.00057   1.92038
   A19        1.87032   0.00787   0.00000   0.03805   0.03818   1.90850
   A20        1.96746  -0.00300   0.00000  -0.01692  -0.01715   1.95031
[...]
 09292890,0.02419365,-0.01541069,0.06766823,-0.23879771,-0.03546563,-0.
 00985918,-0.29193661,-0.07077195,-0.03673530,0.68979517,-0.00003997,0.
 00008492,0.00001049,-0.00002234,-0.00001525,-0.00042675,-0.00037232,0.
 00046484,0.00120745,0.00017136,-0.00012959,-0.00002717,-0.00000326,-0.
 00000175,-0.00003208,-0.00002014,-0.00002659,0.00009136,0.00000713,0.0
 0000337,-0.00000769,-0.00001198,0.00001399,-0.00000058,0.00002387,-0.0
 0001238,-0.00001916,0.00022613,-0.00023970,-0.00017674,0.00206980,0.00
 125599,-0.00289327,0.00083080,-0.01898971,0.00276518,0.00974642,0.0185
 4521,0.00899959,-0.02641777,-0.00183839,-0.00595282,-0.01529318,-0.012
 47002,-0.06696435,-0.01930440,-0.09354383,-0.09155005,0.12824463,0.156
 31033,0.19805441,0.00163447,-0.00131746,0.00098715,-0.00066235,-0.0032
 3830,-0.00088290,-0.00311557,0.00437965,0.00378001,-0.00209383,-0.0008
 5430,-0.00125209,-0.00058858,-0.00055534,0.00058358,0.00031858,-0.0008
 9810,-0.00060270,-0.00026370,0.00012469,0.00031060,0.00001083,0.000071
 39,0.00002564,0.00002970,0.00009195,0.00000135,0.00066854,-0.00029243,
 -0.00055790,0.01050680,-0.00340457,0.00159120,-0.00258949,0.00297569,-
 0.00182099,-0.18173393,0.13219856,0.00033179,-0.00285278,-0.00383237,-
 0.00367011,-0.03682353,0.05363700,0.00370293,0.00312563,-0.00213154,0.
 00077165,0.00122072,-0.00690823,-0.00290498,0.21721572,-0.00403012,-0.
 00225069,-0.00090469,0.00029699,-0.00025632,0.00197227,0.00304974,-0.0
 0190051,-0.00416676,-0.00073595,0.00126001,0.00012173,0.00014297,0.000
 06585,0.00000255,-0.00016060,0.00021508,-0.00012102,0.00004137,-0.0000
 2943,-0.00002018,0.00002002,-0.00007018,0.00001130,-0.00008996,0.00001
 027,0.00005111,-0.00071400,0.00071673,0.00037181,-0.00562389,0.0057900
 1,0.00311601,0.04525155,-0.04421866,-0.00166365,0.13379625,-0.22811854
 ,-0.02001458,-0.00729367,0.00321111,-0.00183233,0.00930941,-0.01351037
 ,-0.00360321,-0.00106815,0.00436440,0.00164676,-0.00398759,-0.00253266
 ,-0.00280811,-0.17615087,0.27900486,-0.00013804,-0.00048985,-0.0003713
 6,-0.00030453,0.00156583,0.00023625,0.00016705,0.00083748,-0.00022172,
 -0.00028697,-0.00010724,0.00038097,0.00005636,-0.00003451,0.00002346,-
 0.00012475,-0.00015817,-0.00004911,-0.00003722,0.00003012,0.00004856,-
 0.00002450,0.00002343,0.00001757,0.00000936,0.00000383,0.00000497,0.00
 043843,-0.00025366,-0.00000238,0.00313353,0.00237455,-0.00396090,0.010
 31253,-0.01447623,0.00555673,0.00051161,-0.02078492,-0.04087108,-0.004
 39526,-0.00154549,0.00382956,-0.00870431,0.00742481,0.00749513,0.00132
 690,0.00156688,-0.00205925,-0.00184680,-0.00375295,0.00259289,-0.00233
 829,0.02547656,0.02946673,-0.00004140,-0.00000241,-0.00000329,0.000064
 68,0.00008081,-0.00013486,-0.00027015,-0.00001051,0.00050091,0.0000435
 1,0.00009462,-0.00003809,-0.00002322,-0.00000527,-0.00000111,-0.000019
 16,-0.00001926,0.00001519,0.00000655,-0.00000021,-0.00000356,-0.000000
 19,0.00000244,-0.00000120,0.00000870,-0.00000048,-0.00000677,0.0007016
 5,-0.00076679,0.00005102,0.00607933,0.00242206,0.00300742,0.00899603,0
 .02072216,0.00595127,-0.00700815,0.00067395,-0.00262300,-0.09678986,-0
 .07410741,-0.03562712,0.00258456,0.00030659,0.00143282,-0.01201390,-0.
 04959640,-0.01838366,-0.00406740,0.00760488,0.00035963,0.00105274,0.00
 110632,0.00055726,0.10073329,-0.00059497,0.00018398,-0.00009633,0.0010
 3604,0.00027967,-0.00122330,-0.00289359,0.00108033,0.00245881,0.000399
 76,-0.00013991,-0.00004218,-0.00007264,0.00003803,-0.00010294,-0.00013
 897,-0.00003444,0.00029912,0.00004376,0.00001163,-0.00003726,-0.000024
 78,0.00003950,-0.00000278,0.00008150,-0.00004624,-0.00005664,0.0009656
 5,-0.00125276,-0.00031066,0.00277936,0.00461779,0.00202252,-0.02021870
 ,-0.05261308,-0.02121652,0.00410474,0.00603505,0.00184205,-0.07193401,
 -0.29880137,-0.09096144,-0.00045695,0.00486837,0.00202195,-0.00669773,
 -0.03138642,-0.01262578,0.00488827,0.00096154,0.00019251,0.00201993,-0
 .00547803,-0.00116314,0.09706139,0.37045446,-0.00016127,0.00003046,-0.
 00003325,-0.00034250,-0.00007810,-0.00077051,-0.00050041,0.00094249,0.
 00211174,0.00013429,-0.00005185,-0.00001547,0.00000115,0.00000312,-0.0
 0004668,-0.00004482,-0.00002112,0.00011365,0.00000957,0.00000719,-0.00
 000932,-0.00001034,0.00001722,-0.00000147,0.00002731,-0.00001538,-0.00
 002139,0.00044157,-0.00027817,-0.00040886,0.00402687,0.00357940,-0.004
 26697,-0.00725657,-0.01194390,0.00312555,-0.00178523,0.00013398,0.0050
 2480,-0.03355976,-0.09138922,-0.07020194,0.00142305,0.00223144,-0.0019
 2671,-0.00654605,-0.02293334,0.00031598,-0.00060515,0.00108987,0.00449
 379,0.00077481,-0.00145383,0.00008450,0.04526172,0.12007318,0.06692967
 ,0.00020171,-0.00014753,0.00003177,-0.00050963,-0.00003502,0.00081136,
 0.00188490,-0.00022177,-0.00175108,-0.00034133,0.00023584,0.00008562,0
 .00004498,-0.00002715,0.00005264,0.00004895,0.00005269,-0.00016933,-0.
 00001974,-0.00000645,0.00001700,0.00001214,-0.00002315,0.00000197,-0.0
 0004962,0.00002776,0.00003673,-0.00021578,0.00032686,0.00017465,-0.003
 07880,-0.00286396,-0.00052481,-0.00407620,0.00812372,-0.00006320,-0.01
 010630,-0.04870792,-0.01831027,0.00302151,0.00049280,0.00147864,-0.097
 11164,-0.07415895,-0.03607213,-0.00776170,-0.00001507,-0.00282245,0.00
 916116,0.02009302,0.00612691,0.00402490,-0.00086843,0.00213029,-0.0006
 7708,-0.00274028,-0.00118017,0.09711257,0.00045703,-0.00020664,0.00009
 523,-0.00102205,-0.00013126,0.00140427,0.00331339,-0.00043864,-0.00289
 071,-0.00069353,0.00039380,0.00015603,0.00006903,-0.00004488,0.0000977
 9,0.00009995,0.00008933,-0.00033106,-0.00004019,-0.00001074,0.00003487
 ,0.00002499,-0.00004775,0.00000374,-0.00009506,0.00005164,0.00006875,-
 0.00032026,0.00056815,0.00026266,-0.00547450,-0.00129811,0.00002321,0.
 00492692,0.00225129,0.00034506,-0.00553680,-0.02911010,-0.01234595,0.0
 0085620,0.00472716,0.00228679,-0.07416325,-0.30096872,-0.09401793,0.00
 236926,0.00455302,0.00079035,-0.02385072,-0.05057909,-0.02235510,-0.00
 310714,0.00937669,0.00348747,-0.00256476,-0.00831369,-0.00324723,0.099
 38345,0.36886270,0.00015832,-0.00009788,0.00002464,-0.00062033,-0.0001
 7568,0.00055620,0.00131401,-0.00018149,-0.00102782,-0.00029237,0.00019
 424,0.00004310,0.00002425,-0.00000997,0.00004089,0.00004152,0.00003841
 ,-0.00013980,-0.00001559,-0.00000531,0.00001358,0.00001319,-0.00002180
 ,0.00000075,-0.00004034,0.00002157,0.00002825,-0.00015281,0.00025357,0
 .00009028,-0.00224173,-0.00105888,0.00021497,-0.00080442,0.00132335,0.
 00479259,-0.00576968,-0.02208779,-0.00010440,0.00168276,0.00230152,-0.
 00184098,-0.03626954,-0.09384948,-0.07030250,-0.00205439,0.00020018,0.
 00384994,-0.00645596,-0.01229195,0.00297122,0.00157235,0.00375986,-0.0
 0382223,-0.00113774,-0.00329372,-0.00021788,0.04637167,0.12327630,0.06
 790182,0.00047856,-0.00021590,0.00010534,-0.00081799,-0.00017051,0.001
 43979,0.00314717,0.00008836,-0.00339214,-0.00087640,0.00040247,0.00031
 094,0.00007565,-0.00005374,0.00010097,0.00008756,0.00011615,-0.0003574
 3,-0.00004572,-0.00000916,0.00003560,0.00002575,-0.00003932,0.00000562
 ,-0.00009973,0.00005168,0.00008177,-0.00023782,0.00052420,0.00017901,-
 0.00679332,0.00150152,0.00092945,0.00171182,-0.00784729,-0.00239577,0.
 00421486,-0.00137716,0.00101321,-0.03560304,0.05228003,0.00449966,-0.0
 0535441,-0.00304362,-0.00329134,-0.19278964,0.14292755,0.00383087,-0.0
 0260349,0.00266167,-0.00185718,-0.00425642,0.00502786,0.00016004,0.004
 29152,-0.00286274,0.00134225,0.00125758,0.00197831,0.00067806,0.224947
 54,-0.00054836,0.00014510,-0.00011500,0.00085435,0.00022085,-0.0010448
 8,-0.00250649,0.00019848,0.00217343,0.00060678,-0.00028736,-0.00014446
 ,-0.00004434,0.00004030,-0.00009022,-0.00009359,-0.00005563,0.00029037
 ,0.00004109,0.00000717,-0.00003375,-0.00002433,0.00003264,-0.00000255,
 0.00007666,-0.00004335,-0.00005994,0.00024282,-0.00047249,-0.00016353,
 0.00430092,0.00029576,-0.00037020,-0.00486065,-0.00155824,-0.00306602,
 -0.00205712,0.00351350,0.00160991,0.00887884,-0.01204737,-0.00378599,-
 0.00536172,0.00279836,-0.00148521,0.14310662,-0.23426775,-0.02380543,0
 .04642908,-0.04248093,-0.00357920,0.00520594,-0.00563719,-0.00058889,-
 0.00080824,0.00977832,0.00424977,0.00087392,-0.00532643,-0.00157088,-0
 .19032724,0.28009435,-0.00005010,-0.00001896,-0.00001452,0.00022613,0.
 00012541,0.00004528,-0.00010315,0.00000065,-0.00033487,-0.00005240,0.0
 0001629,0.00006291,0.00000859,-0.00000502,-0.00000256,-0.00000959,0.00
 001944,-0.00000732,0.00000144,-0.00000045,-0.00000139,-0.00000197,0.00
 000252,0.00000167,-0.00000399,0.00000103,0.00000592,-0.00001253,-0.000
 01754,0.00001903,-0.00042260,0.00049502,0.00043761,-0.00195950,-0.0039
 8801,0.00334774,0.00086961,0.00154887,-0.00195521,-0.00756190,0.006807
 16,0.00816891,-0.00389778,-0.00096936,0.00302829,0.00383206,-0.0237607
 4,-0.04097415,0.01109967,-0.01419741,0.00641811,0.00035011,-0.00066830
 ,0.00078529,0.00199246,0.00350067,-0.00399623,0.00037486,-0.00133237,0
 .00049143,-0.00684494,0.02974530,0.02864843,0.00060805,-0.00030251,0.0
 0009740,-0.00086452,0.00002657,0.00239854,0.00504185,-0.00145271,-0.00
 511453,-0.00090605,0.00043684,0.00024476,0.00011911,-0.00006198,0.0001
 4422,0.00015221,0.00012136,-0.00047946,-0.00005751,-0.00001957,0.00004
 924,0.00003542,-0.00006543,0.00000851,-0.00013602,0.00007341,0.0001004
 1,-0.00070285,0.00102393,0.00052382,-0.01172678,-0.00020173,-0.0006497
 6,0.00552637,0.00016201,0.00214176,0.00472242,0.00055446,-0.00042959,0
 .00180559,0.00379366,0.00104450,-0.05199895,-0.01376281,-0.01813193,-0
 .03850642,-0.00043953,-0.01097835,-0.33495331,-0.03633583,-0.08160914,
 -0.00494186,0.00286158,-0.00060977,-0.00218310,-0.00377001,-0.00175727
 ,0.00725478,0.00359589,0.00407775,0.00937471,-0.00412144,0.00216373,0.
 41254694,-0.00002207,-0.00007162,-0.00001682,-0.00020038,0.00004630,0.
 00028836,0.00074960,-0.00023003,-0.00060893,-0.00012548,0.00007156,0.0
 0005562,0.00002629,-0.00000387,0.00001269,0.00001469,0.00003155,-0.000
 05906,-0.00000421,-0.00000444,0.00000303,0.00000455,-0.00001009,0.0000
 0128,-0.00002029,0.00000934,0.00001484,-0.00006678,0.00011438,0.000065
 98,-0.00160235,0.00020460,-0.00028303,0.00004682,0.00245913,0.00154008
 ,-0.00205177,-0.00710510,-0.00382994,0.00629942,-0.00538088,-0.0012378
 9,0.02986252,0.00828457,0.00713392,-0.04402781,-0.00083953,-0.01286810
 ,-0.03618344,-0.07650677,-0.02105508,0.00199985,0.00042202,0.00039678,
 -0.00272610,-0.00122386,-0.00121494,0.00046706,0.00609066,0.00349722,-
 0.00113245,0.00462039,0.00268209,0.04874076,0.06911730,0.00010332,-0.0
 0009996,0.00002035,-0.00000284,0.00006066,0.00079535,0.00132632,-0.000
 57954,-0.00187002,-0.00023670,0.00016000,0.00004301,0.00002559,-0.0000
 1351,0.00004288,0.00003861,0.00003749,-0.00013315,-0.00001321,-0.00000
 563,0.00001195,0.00001098,-0.00001872,0.00000254,-0.00003753,0.0000192
 6,0.00002794,-0.00027339,0.00032985,0.00020912,-0.00375924,-0.00033870
 ,0.00099519,0.00226183,0.00178808,-0.00187678,-0.00070627,-0.00307856,
 0.00287521,0.00185260,-0.00181641,0.00420620,-0.00556447,-0.00302438,0
 .00584158,-0.02421805,-0.00276222,0.00158289,-0.08155935,-0.02108519,-
 0.05953929,-0.00071977,0.00066672,0.00079966,-0.00160606,-0.00143498,-
 0.00006118,0.00312118,0.00408478,-0.00360902,0.00333444,0.00190607,-0.
 00418274,0.10668086,0.02546751,0.05379706,0.00009749,-0.00033385,0.000
 09166,0.00281242,-0.00053772,0.00324457,0.00355583,-0.00768344,0.00205
 817,-0.00032706,-0.00294645,0.00012451,-0.00007447,-0.00066989,0.00021
 114,-0.00034133,-0.00023776,-0.00007896,0.00046029,-0.00016395,-0.0001
 9237,0.00001741,0.00003407,0.00002124,0.00024478,0.00022123,-0.0000227
 0,-0.11290642,0.08498897,-0.02748195,0.00427639,-0.00068682,-0.0010980
 0,0.00027338,0.00067594,-0.00073761,0.00014376,-0.00000706,0.00020969,
 0.00086815,0.00134820,0.00047950,-0.00003477,0.00000273,0.00001374,-0.
 00000634,-0.00009589,-0.00006010,0.00002798,0.00002365,-0.00000848,-0.
 00000334,0.00000715,-0.00008909,-0.00142590,-0.00106748,0.00019287,-0.
 00001353,-0.00007282,-0.00001725,-0.00002456,0.00002664,0.00000035,0.0
 0002900,-0.00001923,0.00001821,0.12494055,0.00265629,-0.00157777,0.000
 37598,-0.00244124,0.00330866,-0.00096295,0.03075817,-0.04024391,0.0160
 3011,-0.00612340,-0.00959011,-0.00187763,-0.00055194,0.00160479,-0.001
 03373,-0.00084479,-0.00030066,0.00166595,-0.00019723,0.00031924,-0.000
 04878,0.00016233,0.00004302,-0.00008905,0.00052578,-0.00029236,-0.0004
 2540,0.08216288,-0.19765448,0.04420976,-0.00262757,0.00139527,-0.00108
 102,0.00099618,0.00049018,0.00091708,-0.00000767,0.00009878,-0.0001551
 7,-0.00058858,-0.00098708,-0.00030757,0.00014860,0.00035732,0.00014863
 ,0.00030932,-0.00011631,-0.00002747,0.00030842,-0.00001112,0.00008832,
 -0.00022857,-0.00014254,0.00000886,0.00034273,0.00054985,0.00013206,-0
 .00015249,-0.00028570,-0.00012913,-0.00030798,0.00026439,0.00001061,-0
 .00048557,-0.00005205,-0.00013770,-0.12728569,0.27201502,-0.00018412,0
 .00002792,0.00024885,0.00259470,-0.00113598,0.00435811,-0.00104295,-0.
 00243803,-0.00103021,0.00006580,0.00025295,0.00039484,0.00028797,-0.00
 099522,0.00032089,0.00006283,0.00022787,-0.00018649,-0.00004926,0.0000
 2643,0.00001499,-0.00006078,0.00000587,0.00006282,-0.00007865,0.000060
 67,0.00012250,-0.02675369,0.04706846,-0.08160677,0.00010189,0.00079992
 ,0.00045071,-0.00053695,-0.00031805,-0.00016917,0.00009225,-0.00008085
 ,0.00004036,0.00007599,-0.00014131,-0.00005770,-0.00003013,-0.00008323
 ,-0.00003655,-0.00006990,0.00007877,0.00002660,-0.00008885,-0.00000405
 ,-0.00003041,-0.00003219,0.00008860,-0.00000147,0.00042186,0.00014776,
 -0.00026582,0.00004821,0.00009694,0.00004072,0.00008801,-0.00007649,-0
 .00000176,0.00013824,0.00002332,0.00003941,0.04303990,-0.07049373,0.07
 190568,-0.00000025,0.00006377,0.00007312,-0.00282508,-0.00369721,-0.00
 287718,-0.00142547,0.00039262,-0.01833719,0.00033284,-0.00010505,0.001
 04885,0.00037892,-0.00029534,0.00051024,-0.00026141,0.00020392,0.00004
 382,0.00008987,-0.00002564,-0.00000261,-0.00004024,0.00000452,0.000005
 12,0.00004017,0.00005822,0.00002533,-0.05886766,-0.00584063,-0.0361973
 7,-0.00014106,-0.00012626,-0.00009135,0.00018090,0.00017805,0.00015803
 ,0.00027709,-0.00005077,-0.00005162,0.00005281,0.00004482,-0.00000178,
 -0.00004327,0.00002383,0.00000396,-0.00000832,0.00002106,-0.00001209,-
 0.00001533,-0.00002673,-0.00000542,-0.00006706,0.00000635,0.00005807,-
 0.00000285,-0.00004587,0.00000561,0.00002817,0.00002784,0.00001010,0.0
 0002038,-0.00001030,0.00000449,0.00003587,0.00000832,0.00000966,-0.005
 74657,0.00910044,-0.02149975,0.06076053,-0.00001954,0.00026640,0.00007
 052,-0.00587132,-0.00567598,-0.00286189,-0.00082691,0.00504375,-0.0256
 9227,0.00073919,-0.00012770,0.00077138,0.00012989,-0.00189756,0.000362
 07,0.00003184,0.00003310,0.00009696,0.00001123,-0.00001740,-0.00002862
 ,-0.00011330,0.00010887,0.00003846,-0.00000199,0.00001386,0.00002361,-
 0.00786732,-0.05090691,-0.02664587,0.00021779,0.00034544,0.00087278,0.
 00020258,0.00033191,0.00015468,0.00036062,-0.00003178,-0.00010152,0.00
 000841,-0.00004872,0.00001086,-0.00002552,0.00003957,0.00004020,0.0000
 1039,0.00000796,-0.00002627,-0.00000239,-0.00001750,0.00000104,-0.0000
 8091,-0.00000610,0.00007270,0.00005088,0.00002011,-0.00002146,0.000022
 71,0.00001394,0.00000046,0.00000358,0.00000394,0.00000764,0.00001598,0
 .00000565,0.00000428,0.01631979,-0.01294310,0.03794202,-0.00180456,0.0
 6286829,0.00006948,-0.00007079,0.00018018,-0.00155255,-0.00183679,0.00
 081814,0.00209498,0.00254593,-0.00790017,0.00018909,-0.00073479,0.0005
 4081,0.00046109,-0.00024334,-0.00000403,0.00017127,-0.00008071,-0.0000
 0530,-0.00009886,0.00003338,-0.00007331,-0.00005152,0.00006990,0.00006
 504,-0.00002539,-0.00000939,0.00001935,-0.04381993,-0.02183965,-0.3083
 9999,0.00112934,0.00055287,0.00120612,-0.00026350,0.00025341,0.0001920
 0,0.00012874,0.00003985,0.00002845,0.00007089,-0.00006074,-0.00000466,
 0.00002995,0.00006380,0.00002815,-0.00000217,-0.00005483,-0.00003510,0
 .00001790,0.00003244,0.00001161,-0.00002157,-0.00001677,0.00002343,-0.
 00001384,0.00000878,0.00002407,0.00000613,-0.00001299,-0.00001255,-0.0
 0001295,0.00001734,0.00000859,-0.00003692,-0.00000611,-0.00001040,-0.0
 0690529,0.00975900,-0.00475657,0.05179093,0.01444866,0.33052871,-0.000
 09439,0.00009089,-0.00005602,0.00221695,0.00040619,-0.00074508,-0.0138
 3782,0.00126372,0.01235575,0.00035776,-0.00096935,-0.00012595,-0.00012
 384,-0.00009357,0.00001309,-0.00017414,0.00022646,0.00006655,0.0003450
 1,0.00047463,-0.00033025,-0.00001527,-0.00004788,0.00000846,0.00021407
 ,0.00018929,-0.00007135,-0.23696156,0.00126710,0.11738346,-0.00362624,
 -0.00182439,-0.00040761,0.00088526,-0.00051853,0.00097883,-0.00042743,
 0.00028630,-0.00011210,-0.00012281,-0.00017437,-0.00009146,0.00008671,
 0.00015129,0.00001459,0.00015389,-0.00012448,-0.00001647,0.00016697,0.
 00000208,0.00006387,0.00018381,-0.00019432,0.00003810,-0.00004019,0.00
 013832,0.00010847,-0.00009198,-0.00016117,-0.00007183,-0.00013055,0.00
 012016,-0.00000306,-0.00027496,-0.00003752,-0.00008673,-0.01684315,0.0
 1437161,0.00340955,0.00724703,-0.00151112,-0.00335530,0.26090688,-0.00
 021088,0.00039587,-0.00009567,0.00217985,0.00030474,-0.00062463,-0.018
 18039,0.00530845,0.01401672,0.00107494,0.00099292,-0.00025813,0.000007
 45,-0.00007436,0.00012525,-0.00033261,-0.00121810,0.00002233,0.0005609
 7,-0.00119951,0.00010466,0.00001434,0.00000875,-0.00004489,0.00023385,
 0.00003928,-0.00014732,-0.00522934,-0.04844990,-0.00219339,-0.00693087
 ,-0.00317449,0.00009284,0.00076276,-0.00080142,0.00145111,-0.00068168,
 0.00039808,-0.00018083,-0.00032875,-0.00047379,-0.00018729,0.00016524,
 0.00020251,-0.00001220,0.00021646,-0.00014802,-0.00002818,0.00021648,0
 .00000357,0.00010418,0.00029547,-0.00028581,0.00008577,0.00013901,0.00
 037120,0.00015836,-0.00013165,-0.00021664,-0.00009272,-0.00017627,0.00
 016321,-0.00000454,-0.00038732,-0.00004920,-0.00012917,0.03815970,-0.0
 1624932,-0.01108054,0.00189460,0.00256994,-0.00285847,-0.01333136,0.06
 158204,-0.00010582,0.00006499,-0.00008610,0.00075142,0.00027609,0.0009
 0148,-0.00744031,-0.00206004,0.00227203,0.00052309,0.00094019,-0.00018
 781,0.00019435,-0.00010763,-0.00018324,0.00043757,-0.00021560,0.000129
 96,-0.00038852,-0.00021630,0.00023078,-0.00007877,-0.00001221,-0.00002
 666,-0.00009316,-0.00014595,-0.00006553,0.12336583,-0.00412033,-0.1322
 8214,-0.00047855,-0.00034415,0.00117763,-0.00014209,0.00030034,0.00030
 580,0.00008623,-0.00004847,-0.00002288,-0.00005136,-0.00000324,-0.0000
 0119,0.00000772,0.00004705,-0.00000363,0.00000909,-0.00001916,-0.00002
 770,-0.00001702,0.00000982,0.00000423,0.00002032,-0.00001183,0.0000138
 2,0.00002871,0.00000031,0.00001993,0.00002380,0.00001910,0.00001681,0.
 00001671,-0.00000953,0.00000154,-0.00001700,-0.00000281,-0.00000776,-0
 .01301375,0.00342299,0.01011645,0.02532902,0.00045957,-0.01247258,-0.1
 2896750,0.00177678,0.13017675\\0.00000403,-0.00000536,-0.00000602,-0.0
 0000319,0.00000458,0.00001380,-0.00000668,0.00000454,-0.00003387,0.000
 00168,0.00000806,-0.00000746,0.00000475,-0.00000030,-0.00000249,0.0000
 0630,0.00000239,-0.00001373,-0.00000133,0.00000352,-0.00001299,-0.0000
 0281,0.00000416,-0.00001205,0.00000172,0.00000505,-0.00001689,0.000001
 71,-0.00000688,0.00000090,-0.00001313,0.00000010,0.00001129,0.00002321
 ,-0.00000242,0.00000787,-0.00000527,0.00000762,0.00000112,-0.00001407,
 -0.00000652,0.00000429,0.00000038,0.00000717,0.00000801,0.00000199,0.0
 0000171,0.00001511,-0.00000168,-0.00000881,0.00000903,0.00000785,-0.00
 000863,-0.00000071,0.00000142,-0.00000269,0.00000908,-0.00000153,-0.00
 000780,0.00000204,0.00000190,-0.00000675,0.00001745,-0.00000003,-0.000
 00610,0.00001439,-0.00000413,0.00000654,0.00000143,-0.00000265,0.00000
 144,-0.00000179,-0.00000045,0.00000540,-0.00000780\\\@


 A DANDELION FROM A LOVER MEANS MORE THAN AN ORCHID FROM A FRIEND.
 Job cpu time:       0 days  7 hours 47 minutes 17.1 seconds.
 Elapsed time:       0 days  0 hours 19 minutes 29.8 seconds.
 File lengths (MBytes):  RWF=    950 Int=      0 D2E=      0 Chk=     38 Scr=      1
 Normal termination of Gaussian 16 at Thu Aug 29 17:50:41 2024.
