 Entering Gaussian System, Link 0=g16
 Input=input.com
 Output=input.log
 Initial command:
 /opt/apps/g16_avx2/tar//g16/l1.exe "/scratch/Gau-18203.inp" -scrdir="/scratch/"
 Entering Link 1 = /opt/apps/g16_avx2/tar//g16/l1.exe PID=     18204.
  
 Copyright (c) 1988-2017, Gaussian, Inc.  All Rights Reserved.
  
 This is part of the Gaussian(R) 16 program.  It is based on
 the Gaussian(R) 09 system (copyright 2009, Gaussian, Inc.),
 the Gaussian(R) 03 system (copyright 2003, Gaussian, Inc.),
 the Gaussian(R) 98 system (copyright 1998, Gaussian, Inc.),
 the Gaussian(R) 94 system (copyright 1995, Gaussian, Inc.),
 the Gaussian 92(TM) system (copyright 1992, Gaussian, Inc.),
 the Gaussian 90(TM) system (copyright 1990, Gaussian, Inc.),
 the Gaussian 88(TM) system (copyright 1988, Gaussian, Inc.),
 the Gaussian 86(TM) system (copyright 1986, Carnegie Mellon
 University), and the Gaussian 82(TM) system (copyright 1983,
 Carnegie Mellon University). Gaussian is a federally registered
 trademark of Gaussian, Inc.
  
 This software contains proprietary and confidential information,
 including trade secrets, belonging to Gaussian, Inc.
  
 This software is provided under written license and may be
 used, copied, transmitted, or stored only in accord with that
 written license.
  
 The following legend is applicable only to US Government
 contracts under FAR:
  
                    RESTRICTED RIGHTS LEGEND
  
 Use, reproduction and disclosure by the US Government is
 subject to restrictions as set forth in subparagraphs (a)
 and (c) of the Commercial Computer Software - Restricted
 Rights clause in FAR 52.227-19.
  
 Gaussian, Inc.
 340 Quinnipiac St., Bldg. 40, Wallingford CT 06492
  
  
 ---------------------------------------------------------------
 Warning -- This program may not be used in any manner that
 competes with the business of Gaussian, Inc. or will provide
 assistance to any competitor of Gaussian, Inc.  The licensee
 of this program is prohibited from giving any competitor of
 Gaussian, Inc. access to this program.  By using this program,
 the user acknowledges that Gaussian, Inc. is engaged in the
 business of creating and licensing software in the field of
 computational chemistry and represents and warrants to the
 licensee that it is not a competitor of Gaussian, Inc. and that
 it will not use this program in any manner prohibited above.
 ---------------------------------------------------------------
  

 Cite this work as:
 Gaussian 16, Revision B.01,
 M. J. Frisch, G. W. Trucks, H. B. Schlegel, G. E. Scuseria, 
 M. A. Robb, J. R. Cheeseman, G. Scalmani, V. Barone, 
 G. A. Petersson, H. Nakatsuji, X. Li, M. Caricato, A. V. Marenich, 
 J. Bloino, B. G. Janesko, R. Gomperts, B. Mennucci, H. P. Hratchian, 
 J. V. Ortiz, A. F. Izmaylov, J. L. Sonnenberg, D. Williams-Young, 
 F. Ding, F. Lipparini, F. Egidi, J. Goings, B. Peng, A. Petrone, 
 T. Henderson, D. Ranasinghe, V. G. Zakrzewski, J. Gao, N. Rega, 
 G. Zheng, W. Liang, M. Hada, M. Ehara, K. Toyota, R. Fukuda, 
 J. Hasegawa, M. Ishida, T. Nakajima, Y. Honda, O. Kitao, H. Nakai, 
 T. Vreven, K. Throssell, J. A. Montgomery, Jr., J. E. Peralta, 
 F. Ogliaro, M. J. Bearpark, J. J. Heyd, E. N. Brothers, K. N. Kudin, 
 V. N. Staroverov, T. A. Keith, R. Kobayashi, J. Normand, 
 K. Raghavachari, A. P. Rendell, J. C. Burant, S. S. Iyengar, 
 J. Tomasi, M. Cossi, J. M. Millam, M. Klene, C. Adamo, R. Cammi, 
 J. W. Ochterski, R. L. Martin, K. Morokuma, O. Farkas, 
 J. B. Foresman, and D. J. Fox, Gaussian, Inc., Wallingford CT, 2016.
 
 ******************************************
 Gaussian 16:  ES64L-G16RevB.01 20-Dec-2017
                 6-Feb-2025 
 ******************************************
 %nprocshared=16
 Will use up to   16 processors via shared memory.
 %mem=60GB
 ----------------------------------------------------------------------
 #P PBE1PBE/def2TZVP opt freq EmpiricalDispersion=GD3 Int=(grid=99590) 
 scrf=(iefpcm, solvent=water)
 ----------------------------------------------------------------------
 1/18=20,19=15,26=6,38=1/1,3;
 2/9=110,12=2,17=6,18=5,40=1/2;
 3/5=44,7=101,11=2,25=1,30=1,70=2201,71=1,72=1,74=-13,75=99590,124=31/1,2,3;
 4//1;
 5/5=2,38=5,53=1/2;
 6/7=2,8=2,9=2,10=2,28=1/1;
 7//1,2,3,16;
 1/18=20,19=15,26=6/3(2);
 2/9=110/2;
 99//99;
 2/9=110/2;
 3/5=44,7=101,11=2,25=1,30=1,70=2205,71=1,72=1,74=-13,75=99590,124=31/1,2,3;
 4/5=5,16=3,69=1/1;
 5/5=2,38=5,53=1/2;
 7//1,2,3,16;
 1/18=20,19=15,26=6/3(-5);
 2/9=110/2;
 6/7=2,8=2,9=2,10=2,19=2,28=1/1;
 99/9=1/99;
 Leave Link    1 at Thu Feb  6 12:58:29 2025, MaxMem=  8053063680 cpu:               0.3 elap:               0.1
 (Enter /opt/apps/g16_avx2/tar//g16/l101.exe)
 -------------------
 y=chf2 intermediate
 -------------------
 Symbolic Z-matrix:
 Charge =  0 Multiplicity = 1
 H                    -2.38383   1.6242    0.15024 
 O                    -1.82323  -0.54809   1.31845 
 C                    -2.28509  -0.50216   0.17075 
 N                    -3.08941   0.92129  -0.05831 
 H                    -3.34124   1.03395  -1.03733 
 C                    -4.24972   1.08753   0.82714 
 H                    -5.04366   0.41513   0.51086 
 H                    -3.93389   0.84095   1.83915 
 H                    -4.60674   2.11529   0.78855 
 O                    -1.25518  -0.27146  -0.96263 
 C                     0.01051  -0.12482  -0.55805 
 C                     0.58541   1.13588  -0.42547 
 C                     0.82232  -1.2224   -0.28247 
 C                     1.90823   1.3055   -0.05907 
 C                     2.14596  -1.07126   0.08962 
 C                     2.69328   0.19587   0.201 
 F                    -0.16252   2.21749  -0.64948 
 F                     0.32385  -2.44952  -0.38922 
 F                     2.42537   2.52424   0.05163 
 F                     2.89816  -2.13758   0.34052 
 F                     3.96377   0.34454   0.55525 
 C                    -3.19882  -1.61563  -0.37413 
 H                    -3.48503  -1.38259  -1.37845 
 F                    -2.53523  -2.79115  -0.35657 
 F                    -4.3023   -1.71023   0.39781 
 
 ITRead=  0  0  0  0  0  0  0  0  0  0  0  0  0  0  0  0  0  0  0  0
 ITRead=  0  0  0  0  0
 MicOpt= -1 -1 -1 -1 -1 -1 -1 -1 -1 -1 -1 -1 -1 -1 -1 -1 -1 -1 -1 -1
 MicOpt= -1 -1 -1 -1 -1
 NAtoms=     25 NQM=       25 NQMF=       0 NMMI=      0 NMMIF=      0
                NMic=       0 NMicF=      0.
                    Isotopes and Nuclear Properties:
 (Nuclear quadrupole moments (NQMom) in fm**2, nuclear magnetic moments (NMagM)
  in nuclear magnetons)

  Atom         1           2           3           4           5           6           7           8           9          10
 IAtWgt=           1          16          12          14           1          12           1           1           1          16
 AtmWgt=   1.0078250  15.9949146  12.0000000  14.0030740   1.0078250  12.0000000   1.0078250   1.0078250   1.0078250  15.9949146
 NucSpn=           1           0           0           2           1           0           1           1           1           0
 AtZEff=  -0.0000000  -0.0000000  -0.0000000  -0.0000000  -0.0000000  -0.0000000  -0.0000000  -0.0000000  -0.0000000  -0.0000000
 NQMom=    0.0000000   0.0000000   0.0000000   2.0440000   0.0000000   0.0000000   0.0000000   0.0000000   0.0000000   0.0000000
 NMagM=    2.7928460   0.0000000   0.0000000   0.4037610   2.7928460   0.0000000   2.7928460   2.7928460   2.7928460   0.0000000
 AtZNuc=   1.0000000   8.0000000   6.0000000   7.0000000   1.0000000   6.0000000   1.0000000   1.0000000   1.0000000   8.0000000

  Atom        11          12          13          14          15          16          17          18          19          20
 IAtWgt=          12          12          12          12          12          12          19          19          19          19
 AtmWgt=  12.0000000  12.0000000  12.0000000  12.0000000  12.0000000  12.0000000  18.9984032  18.9984032  18.9984032  18.9984032
 NucSpn=           0           0           0           0           0           0           1           1           1           1
 AtZEff=  -0.0000000  -0.0000000  -0.0000000  -0.0000000  -0.0000000  -0.0000000  -0.0000000  -0.0000000  -0.0000000  -0.0000000
 NQMom=    0.0000000   0.0000000   0.0000000   0.0000000   0.0000000   0.0000000   0.0000000   0.0000000   0.0000000   0.0000000
 NMagM=    0.0000000   0.0000000   0.0000000   0.0000000   0.0000000   0.0000000   2.6288670   2.6288670   2.6288670   2.6288670
 AtZNuc=   6.0000000   6.0000000   6.0000000   6.0000000   6.0000000   6.0000000   9.0000000   9.0000000   9.0000000   9.0000000

  Atom        21          22          23          24          25
 IAtWgt=          19          12           1          19          19
 AtmWgt=  18.9984032  12.0000000   1.0078250  18.9984032  18.9984032
 NucSpn=           1           0           1           1           1
 AtZEff=  -0.0000000  -0.0000000  -0.0000000  -0.0000000  -0.0000000
 NQMom=    0.0000000   0.0000000   0.0000000   0.0000000   0.0000000
 NMagM=    2.6288670   0.0000000   2.7928460   2.6288670   2.6288670
 AtZNuc=   9.0000000   6.0000000   1.0000000   9.0000000   9.0000000
 Leave Link  101 at Thu Feb  6 12:58:30 2025, MaxMem=  8053063680 cpu:               2.4 elap:               0.2
 (Enter /opt/apps/g16_avx2/tar//g16/l103.exe)

 GradGradGradGradGradGradGradGradGradGradGradGradGradGradGradGradGradGrad
 Berny optimization.
 Initialization pass.
                           ----------------------------
                           !    Initial Parameters    !
                           ! (Angstroms and Degrees)  !
 --------------------------                            --------------------------
 ! Name  Definition              Value          Derivative Info.                !
 --------------------------------------------------------------------------------
 ! R1    R(1,4)                  1.0176         estimate D2E/DX2                !
 ! R2    R(2,3)                  1.238          estimate D2E/DX2                !
 ! R3    R(3,4)                  1.6509         estimate D2E/DX2                !
 ! R4    R(3,10)                 1.5487         estimate D2E/DX2                !
 ! R5    R(3,22)                 1.54           estimate D2E/DX2                !
 ! R6    R(4,5)                  1.0171         estimate D2E/DX2                !
 ! R7    R(4,6)                  1.469          estimate D2E/DX2                !
 ! R8    R(6,7)                  1.0874         estimate D2E/DX2                !
 ! R9    R(6,8)                  1.0884         estimate D2E/DX2                !
 ! R10   R(6,9)                  1.0887         estimate D2E/DX2                !
 ! R11   R(10,11)                1.3368         estimate D2E/DX2                !
 ! R12   R(11,12)                1.3919         estimate D2E/DX2                !
 ! R13   R(11,13)                1.3927         estimate D2E/DX2                !
 ! R14   R(12,14)                1.3831         estimate D2E/DX2                !
 ! R15   R(12,17)                1.334          estimate D2E/DX2                !
 ! R16   R(13,15)                1.3832         estimate D2E/DX2                !
 ! R17   R(13,18)                1.3288         estimate D2E/DX2                !
 ! R18   R(14,16)                1.3839         estimate D2E/DX2                !
 ! R19   R(14,19)                1.3285         estimate D2E/DX2                !
 ! R20   R(15,16)                1.3848         estimate D2E/DX2                !
 ! R21   R(15,20)                1.3288         estimate D2E/DX2                !
 ! R22   R(16,21)                1.3273         estimate D2E/DX2                !
 ! R23   R(22,23)                1.07           estimate D2E/DX2                !
 ! R24   R(22,24)                1.35           estimate D2E/DX2                !
 ! R25   R(22,25)                1.35           estimate D2E/DX2                !
 ! A1    A(2,3,4)              110.0216         estimate D2E/DX2                !
 ! A2    A(2,3,10)             115.8406         estimate D2E/DX2                !
 ! A3    A(2,3,22)             121.5026         estimate D2E/DX2                !
 ! A4    A(4,3,10)              95.3945         estimate D2E/DX2                !
 ! A5    A(4,3,22)             106.5739         estimate D2E/DX2                !
 ! A6    A(10,3,22)            104.0841         estimate D2E/DX2                !
 ! A7    A(1,4,3)              103.2582         estimate D2E/DX2                !
 ! A8    A(1,4,5)              107.004          estimate D2E/DX2                !
 ! A9    A(1,4,6)              110.2424         estimate D2E/DX2                !
 ! A10   A(3,4,5)              110.4667         estimate D2E/DX2                !
 ! A11   A(3,4,6)              113.4997         estimate D2E/DX2                !
 ! A12   A(5,4,6)              111.8433         estimate D2E/DX2                !
 ! A13   A(4,6,7)              109.3539         estimate D2E/DX2                !
 ! A14   A(4,6,8)              107.794          estimate D2E/DX2                !
 ! A15   A(4,6,9)              110.1501         estimate D2E/DX2                !
 ! A16   A(7,6,8)              110.0113         estimate D2E/DX2                !
 ! A17   A(7,6,9)              109.5119         estimate D2E/DX2                !
 ! A18   A(8,6,9)              109.997          estimate D2E/DX2                !
 ! A19   A(3,10,11)            115.1181         estimate D2E/DX2                !
 ! A20   A(10,11,12)           121.2798         estimate D2E/DX2                !
 ! A21   A(10,11,13)           121.6893         estimate D2E/DX2                !
 ! A22   A(12,11,13)           117.0125         estimate D2E/DX2                !
 ! A23   A(11,12,14)           122.0963         estimate D2E/DX2                !
 ! A24   A(11,12,17)           119.1312         estimate D2E/DX2                !
 ! A25   A(14,12,17)           118.771          estimate D2E/DX2                !
 ! A26   A(11,13,15)           121.662          estimate D2E/DX2                !
 ! A27   A(11,13,18)           119.5526         estimate D2E/DX2                !
 ! A28   A(15,13,18)           118.7824         estimate D2E/DX2                !
 ! A29   A(12,14,16)           119.6047         estimate D2E/DX2                !
 ! A30   A(12,14,19)           120.4557         estimate D2E/DX2                !
 ! A31   A(16,14,19)           119.9384         estimate D2E/DX2                !
 ! A32   A(13,15,16)           119.9891         estimate D2E/DX2                !
 ! A33   A(13,15,20)           120.317          estimate D2E/DX2                !
 ! A34   A(16,15,20)           119.6939         estimate D2E/DX2                !
 ! A35   A(14,16,15)           119.6281         estimate D2E/DX2                !
 ! A36   A(14,16,21)           120.2209         estimate D2E/DX2                !
 ! A37   A(15,16,21)           120.1511         estimate D2E/DX2                !
 ! A38   A(3,22,23)            109.4712         estimate D2E/DX2                !
 ! A39   A(3,22,24)            109.4712         estimate D2E/DX2                !
 ! A40   A(3,22,25)            109.4712         estimate D2E/DX2                !
 ! A41   A(23,22,24)           109.4713         estimate D2E/DX2                !
 ! A42   A(23,22,25)           109.4712         estimate D2E/DX2                !
 ! A43   A(24,22,25)           109.4712         estimate D2E/DX2                !
 ! D1    D(2,3,4,1)             56.7379         estimate D2E/DX2                !
 ! D2    D(2,3,4,5)            170.8566         estimate D2E/DX2                !
 ! D3    D(2,3,4,6)            -62.6068         estimate D2E/DX2                !
 ! D4    D(10,3,4,1)           -63.2872         estimate D2E/DX2                !
 ! D5    D(10,3,4,5)            50.8315         estimate D2E/DX2                !
 ! D6    D(10,3,4,6)           177.3681         estimate D2E/DX2                !
 ! D7    D(22,3,4,1)          -169.7342         estimate D2E/DX2                !
 ! D8    D(22,3,4,5)           -55.6155         estimate D2E/DX2                !
 ! D9    D(22,3,4,6)            70.9211         estimate D2E/DX2                !
 ! D10   D(2,3,10,11)           -1.1827         estimate D2E/DX2                !
 ! D11   D(4,3,10,11)          114.1475         estimate D2E/DX2                !
 ! D12   D(22,3,10,11)        -137.2444         estimate D2E/DX2                !
 ! D13   D(2,3,22,23)          179.9999         estimate D2E/DX2                !
 ! D14   D(2,3,22,24)          -60.0001         estimate D2E/DX2                !
 ! D15   D(2,3,22,25)           59.9999         estimate D2E/DX2                !
 ! D16   D(4,3,22,23)           53.0324         estimate D2E/DX2                !
 ! D17   D(4,3,22,24)          173.0324         estimate D2E/DX2                !
 ! D18   D(4,3,22,25)          -66.9676         estimate D2E/DX2                !
 ! D19   D(10,3,22,23)         -47.0926         estimate D2E/DX2                !
 ! D20   D(10,3,22,24)          72.9074         estimate D2E/DX2                !
 ! D21   D(10,3,22,25)        -167.0926         estimate D2E/DX2                !
 ! D22   D(1,4,6,7)            172.859          estimate D2E/DX2                !
 ! D23   D(1,4,6,8)            -67.5596         estimate D2E/DX2                !
 ! D24   D(1,4,6,9)             52.4628         estimate D2E/DX2                !
 ! D25   D(3,4,6,7)            -71.8709         estimate D2E/DX2                !
 ! D26   D(3,4,6,8)             47.7105         estimate D2E/DX2                !
 ! D27   D(3,4,6,9)            167.7328         estimate D2E/DX2                !
 ! D28   D(5,4,6,7)             53.937          estimate D2E/DX2                !
 ! D29   D(5,4,6,8)            173.5184         estimate D2E/DX2                !
 ! D30   D(5,4,6,9)            -66.4592         estimate D2E/DX2                !
 ! D31   D(3,10,11,12)         -98.8821         estimate D2E/DX2                !
 ! D32   D(3,10,11,13)          82.7259         estimate D2E/DX2                !
 ! D33   D(10,11,12,14)       -177.409          estimate D2E/DX2                !
 ! D34   D(10,11,12,17)          3.0457         estimate D2E/DX2                !
 ! D35   D(13,11,12,14)          1.0552         estimate D2E/DX2                !
 ! D36   D(13,11,12,17)       -178.4901         estimate D2E/DX2                !
 ! D37   D(10,11,13,15)        177.6349         estimate D2E/DX2                !
 ! D38   D(10,11,13,18)         -1.7371         estimate D2E/DX2                !
 ! D39   D(12,11,13,15)         -0.8226         estimate D2E/DX2                !
 ! D40   D(12,11,13,18)        179.8054         estimate D2E/DX2                !
 ! D41   D(11,12,14,16)         -0.7078         estimate D2E/DX2                !
 ! D42   D(11,12,14,19)        179.6795         estimate D2E/DX2                !
 ! D43   D(17,12,14,16)        178.8391         estimate D2E/DX2                !
 ! D44   D(17,12,14,19)         -0.7736         estimate D2E/DX2                !
 ! D45   D(11,13,15,16)          0.2505         estimate D2E/DX2                !
 ! D46   D(11,13,15,20)       -179.6925         estimate D2E/DX2                !
 ! D47   D(18,13,15,16)        179.6272         estimate D2E/DX2                !
 ! D48   D(18,13,15,20)         -0.3158         estimate D2E/DX2                !
 ! D49   D(12,14,16,15)          0.0882         estimate D2E/DX2                !
 ! D50   D(12,14,16,21)       -179.9114         estimate D2E/DX2                !
 ! D51   D(19,14,16,15)        179.7029         estimate D2E/DX2                !
 ! D52   D(19,14,16,21)         -0.2967         estimate D2E/DX2                !
 ! D53   D(13,15,16,14)          0.1335         estimate D2E/DX2                !
 ! D54   D(13,15,16,21)       -179.8669         estimate D2E/DX2                !
 ! D55   D(20,15,16,14)       -179.9232         estimate D2E/DX2                !
 ! D56   D(20,15,16,21)          0.0764         estimate D2E/DX2                !
 --------------------------------------------------------------------------------
 Trust Radius=3.00D-01 FncErr=5.00D-06 GrdErr=5.00D-06 EigMax=2.50D+02 EigMin=1.00D-04
 Number of steps in this run=    134 maximum allowed number of steps=    150.
 GradGradGradGradGradGradGradGradGradGradGradGradGradGradGradGradGradGrad

 Leave Link  103 at Thu Feb  6 12:58:30 2025, MaxMem=  8053063680 cpu:               0.1 elap:               0.1
 (Enter /opt/apps/g16_avx2/tar//g16/l202.exe)
                          Input orientation:                          
 ---------------------------------------------------------------------
 Center     Atomic      Atomic             Coordinates (Angstroms)
 Number     Number       Type             X           Y           Z
 ---------------------------------------------------------------------
      1          1           0       -2.383829    1.624202    0.150237
      2          8           0       -1.823226   -0.548090    1.318451
      3          6           0       -2.285094   -0.502158    0.170750
      4          7           0       -3.089411    0.921294   -0.058314
      5          1           0       -3.341241    1.033951   -1.037329
      6          6           0       -4.249723    1.087525    0.827140
      7          1           0       -5.043664    0.415126    0.510861
      8          1           0       -3.933886    0.840950    1.839147
      9          1           0       -4.606738    2.115293    0.788554
     10          8           0       -1.255180   -0.271461   -0.962627
     11          6           0        0.010505   -0.124822   -0.558054
     12          6           0        0.585408    1.135881   -0.425472
     13          6           0        0.822320   -1.222397   -0.282473
     14          6           0        1.908228    1.305495   -0.059071
     15          6           0        2.145960   -1.071257    0.089620
     16          6           0        2.693277    0.195871    0.200995
     17          9           0       -0.162520    2.217487   -0.649477
     18          9           0        0.323848   -2.449521   -0.389216
     19          9           0        2.425365    2.524237    0.051633
     20          9           0        2.898159   -2.137581    0.340520
     21          9           0        3.963765    0.344539    0.555246
     22          6           0       -3.198818   -1.615629   -0.374126
     23          1           0       -3.485027   -1.382589   -1.378455
     24          9           0       -2.535227   -2.791146   -0.356570
     25          9           0       -4.302296   -1.710231    0.397811
 ---------------------------------------------------------------------
                    Distance matrix (angstroms):
                    1          2          3          4          5
     1  H    0.000000
     2  O    2.529398   0.000000
     3  C    2.128750   1.238002   0.000000
     4  N    1.017555   2.378612   1.650943   0.000000
     5  H    1.635649   3.218217   2.221381   1.017143   0.000000
     6  C    2.056157   2.967239   2.611074   1.469008   2.074718
     7  H    2.943915   3.457052   2.926909   2.097444   2.382872
     8  H    2.422515   2.579814   2.702962   2.078449   2.943228
     9  H    2.364306   3.888745   3.552853   2.108341   2.470755
    10  O    2.471002   2.366964   1.548705   2.367456   2.461977
    11  C    3.048540   2.657630   2.437891   3.309619   3.578639
    12  C    3.063701   3.417389   3.358338   3.699344   3.975340
    13  C    4.309264   3.164895   3.221828   4.466240   4.795431
    14  C    4.308960   4.388291   4.572130   5.012385   5.346742
    15  C    5.271448   4.187860   4.468187   5.603682   5.984253
    16  C    5.274439   4.711793   5.027160   5.833778   6.217011
    17  F    2.434285   3.778770   3.546063   3.255193   3.414008
    18  F    4.921153   3.337888   3.303387   4.808558   5.097794
    19  F    4.893683   5.393937   5.600150   5.744064   6.054794
    20  F    6.487420   5.076841   5.437788   6.735487   7.133526
    21  F    6.487952   5.904959   6.317671   7.103266   7.508309
    22  C    3.381667   2.428314   1.540000   2.558845   2.735032
    23  H    3.548285   3.275862   2.148263   2.684615   2.444730
    24  F    4.446917   2.888588   2.362223   3.765407   3.967929
    25  F    3.854900   2.888587   2.362224   2.933268   3.242497
                    6          7          8          9         10
     6  C    0.000000
     7  H    1.087426   0.000000
     8  H    1.088444   1.782492   0.000000
     9  H    1.088694   1.777241   1.783375   0.000000
    10  O    3.743981   4.122521   4.032724   4.471708   0.000000
    11  C    4.640915   5.194107   4.715666   5.305695   1.336840
    12  C    4.994984   5.751753   5.063546   5.421392   2.378426
    13  C    5.682658   6.141712   5.601800   6.462348   2.383882
    14  C    6.225210   7.031812   6.160303   6.619594   3.648336
    15  C    6.790364   7.353739   6.609229   7.499436   3.648925
    16  C    7.027969   7.746247   6.857037   7.570973   4.142792
    17  F    4.490261   5.331084   4.723484   4.672200   2.736207
    18  F    5.908280   6.150327   5.824182   6.821682   2.750650
    19  F    6.871852   7.774679   6.816798   7.082426   4.731919
    20  F    7.856865   8.343733   7.602261   8.637775   4.736119
    21  F    8.251505   9.007815   8.016715   8.754629   5.469989
    22  C    3.139185   2.882816   3.387283   4.153775   2.435334
    23  H    3.398657   3.038197   3.936821   4.264896   2.525813
    24  F    4.402812   4.162316   4.468729   5.447532   2.890439
    25  F    2.830994   2.253785   2.953252   3.857460   3.633974
                   11         12         13         14         15
    11  C    0.000000
    12  C    1.391928   0.000000
    13  C    1.392717   2.374458   0.000000
    14  C    2.428198   1.383066   2.760316   0.000000
    15  C    2.423920   2.751745   1.383228   2.393235   0.000000
    16  C    2.806468   2.391483   2.397020   1.383908   1.384765
    17  F    2.350470   1.333959   3.596860   2.338441   4.085484
    18  F    2.351790   3.595113   1.328797   4.088936   2.334307
    19  F    3.636039   2.353849   4.088844   1.328540   3.606534
    20  F    3.632792   4.080578   2.352613   3.604776   1.328834
    21  F    4.133764   3.605735   3.609119   2.350756   2.350681
    22  C    3.543457   4.679082   4.041359   5.891871   5.392407
    23  H    3.804442   4.880502   4.447479   6.168773   5.827536
    24  F    3.691969   5.016438   3.706695   6.051055   5.007057
    25  F    4.693341   5.715575   5.192539   6.919101   6.487162
                   16         17         18         19         20
    16  C    0.000000
    17  F    3.600807   0.000000
    18  F    3.600089   4.699495   0.000000
    19  F    2.348483   2.698666   5.417471   0.000000
    20  F    2.346581   5.414284   2.693863   4.694629   0.000000
    21  F    1.327304   4.688872   4.684845   2.715029   2.709713
    22  C    6.191049   4.897724   3.620052   6.996513   6.160867
    23  H    6.569447   4.952878   4.077311   7.227805   6.653566
    24  F    6.047347   5.549949   2.879598   7.281992   5.516772
    25  F    7.253275   5.801855   4.750492   7.956883   7.213353
                   21         22         23         24         25
    21  F    0.000000
    22  C    7.483889   0.000000
    23  H    7.887120   1.070000   0.000000
    24  F    7.273296   1.350000   1.982524   0.000000
    25  F    8.519074   1.350000   1.982524   2.204541   0.000000
 Stoichiometry    C9H6F7NO2
 Framework group  C1[X(C9H6F7NO2)]
 Deg. of freedom    69
 Full point group                 C1      NOp   1
 Largest Abelian subgroup         C1      NOp   1
 Largest concise Abelian subgroup C1      NOp   1
                         Standard orientation:                         
 ---------------------------------------------------------------------
 Center     Atomic      Atomic             Coordinates (Angstroms)
 Number     Number       Type             X           Y           Z
 ---------------------------------------------------------------------
      1          1           0       -1.677344    2.175967    0.109359
      2          8           0       -1.484915   -0.043854    1.306531
      3          6           0       -1.925538    0.062216    0.154468
      4          7           0       -2.486352    1.594429   -0.097374
      5          1           0       -2.710015    1.734320   -1.079711
      6          6           0       -3.610102    1.957849    0.776180
      7          1           0       -4.500620    1.419424    0.460631
      8          1           0       -3.345262    1.675844    1.793551
      9          1           0       -3.795123    3.029391    0.723055
     10          8           0       -0.864311    0.108521   -0.972537
     11          6           0        0.405662    0.052698   -0.558783
     12          6           0        1.176863    1.204861   -0.435364
     13          6           0        1.026511   -1.158628   -0.264005
     14          6           0        2.507198    1.161955   -0.059544
     15          6           0        2.354616   -1.219824    0.117720
     16          6           0        3.099783   -0.057105    0.219626
     17          9           0        0.616113    2.390698   -0.677845
     18          9           0        0.336008   -2.289751   -0.361307
     19          9           0        3.214730    2.281826    0.041972
     20          9           0        2.921884   -2.390942    0.386959
     21          9           0        4.375160   -0.112331    0.583081
     22          6           0       -3.004387   -0.894781   -0.385756
     23          1           0       -3.242243   -0.630844   -1.395044
     24          9           0       -2.540737   -2.162142   -0.349378
     25          9           0       -4.113683   -0.799348    0.377693
 ---------------------------------------------------------------------
 Rotational constants (GHZ):           0.6407088           0.2446558           0.1892665
 Leave Link  202 at Thu Feb  6 12:58:30 2025, MaxMem=  8053063680 cpu:               0.1 elap:               0.1
 (Enter /opt/apps/g16_avx2/tar//g16/l301.exe)
 Standard basis: def2TZVP (5D, 7F)
 Ernie: Thresh=  0.10000D-02 Tol=  0.10000D-05 Strict=F.
 There are   720 symmetry adapted cartesian basis functions of A   symmetry.
 There are   625 symmetry adapted basis functions of A   symmetry.
   625 basis functions,  1017 primitive gaussians,   720 cartesian basis functions
    73 alpha electrons       73 beta electrons
       nuclear repulsion energy      1638.4406889445 Hartrees.
 IExCor= 1009 DFT=T Ex+Corr=PBE1PBE ExCW=0 ScaHFX=  0.250000
 ScaDFX=  0.750000  0.750000  1.000000  1.000000 ScalE2=  1.000000  1.000000
 IRadAn=  99590 IRanWt=     -1 IRanGd=            0 ICorTp=0 IEmpDi=131
 NAtoms=   25 NActive=   25 NUniq=   25 SFac= 1.00D+00 NAtFMM=   60 NAOKFM=F Big=F
 Integral buffers will be    131072 words long.
 Raffenetti 2 integral format.
 Two-electron integral symmetry is turned on.
 R6Disp:  Grimme-D3 Dispersion energy=       -0.0166469562 Hartrees.
 Nuclear repulsion after empirical dispersion term =     1638.4240419883 Hartrees.
 ------------------------------------------------------------------------------
 Polarizable Continuum Model (PCM)
 =================================
 Model                : PCM.
 Atomic radii         : UFF (Universal Force Field).
 Polarization charges : Total charges.
 Charge compensation  : None.
 Solution method      : On-the-fly selection.
 Cavity type          : Scaled VdW (van der Waals Surface) (Alpha=1.100).
 Cavity algorithm     : GePol (No added spheres)
                        Default sphere list used, NSphG=   25.
                        Lebedev-Laikov grids with approx.  5.0 points / Ang**2.
                        Smoothing algorithm: York/Karplus (Gamma=1.0000).
                        Polarization charges: spherical gaussians, with
                                              point-specific exponents (IZeta= 3).
                        Self-potential: point-specific (ISelfS= 7).
                        Self-field    : sphere-specific E.n sum rule (ISelfD= 2).
 1st derivatives      : Analytical E(r).r(x)/FMM algorithm (CHGder, D1EAlg=3).
                        Cavity 1st derivative terms included.
 Solvent              : Water, Eps=  78.355300 Eps(inf)=   1.777849
 ------------------------------------------------------------------------------
 GePol: Number of generator spheres                  =      25
 GePol: Total number of spheres                      =      25
 GePol: Number of exposed spheres                    =      25 (100.00%)
 GePol: Number of points                             =    2224
 GePol: Average weight of points                     =       0.13
 GePol: Minimum weight of points                     =   0.27D-10
 GePol: Maximum weight of points                     =    0.20577
 GePol: Number of points with low weight             =     119
 GePol: Fraction of low-weight points (<1% of avg)   =       5.35%
 GePol: Cavity surface area                          =    278.010 Ang**2
 GePol: Cavity volume                                =    297.298 Ang**3
 Leave Link  301 at Thu Feb  6 12:58:30 2025, MaxMem=  8053063680 cpu:               0.8 elap:               0.1
 (Enter /opt/apps/g16_avx2/tar//g16/l302.exe)
 NPDir=0 NMtPBC=     1 NCelOv=     1 NCel=       1 NClECP=     1 NCelD=      1
         NCelK=      1 NCelE2=     1 NClLst=     1 CellRange=     0.0.
 One-electron integrals computed using PRISM.
 One-electron integral symmetry used in STVInt
   1 Symmetry operations used in ECPInt.
 ECPInt:  NShTT=   27261 NPrTT=   87172 LenC2=   23594 LenP2D=   53391.
 LDataN:  DoStor=T MaxTD1= 6 Len=  172
 NBasis=   625 RedAO= T EigKep=  1.46D-05  NBF=   625
 NBsUse=   625 1.00D-06 EigRej= -1.00D+00 NBFU=   625
 Precomputing XC quadrature grid using
 IXCGrd= 4 IRadAn=       99590 IRanWt=          -1 IRanGd=           0 AccXCQ= 0.00D+00.
 Generated NRdTot=       0 NPtTot=           0 NUsed=           0 NTot=          32
 NSgBfM=   708   708   708   708   708 MxSgAt=    25 MxSgA2=    25.
 Leave Link  302 at Thu Feb  6 12:58:31 2025, MaxMem=  8053063680 cpu:               7.3 elap:               0.7
 (Enter /opt/apps/g16_avx2/tar//g16/l303.exe)
 DipDrv:  MaxL=1.
 Leave Link  303 at Thu Feb  6 12:58:32 2025, MaxMem=  8053063680 cpu:               0.8 elap:               0.2
 (Enter /opt/apps/g16_avx2/tar//g16/l401.exe)
 ExpMin= 9.52D-02 ExpMax= 3.55D+04 ExpMxC= 1.21D+03 IAcc=4 IRadAn=    199590 AccDes= 0.00D+00
 Harris functional with IExCor= 1009 and IRadAn=  199590 diagonalized for initial guess.
 HarFok:  IExCor= 1009 AccDes= 0.00D+00 IRadAn=    199590 IDoV= 1 UseB2=F ITyADJ=14
 ICtDFT=  3500011 ScaDFX=  1.000000  1.000000  1.000000  1.000000
 FoFCou: FMM=F IPFlag=           0 FMFlag=      100000 FMFlg1=           0
         NFxFlg=           0 DoJE=T BraDBF=F KetDBF=T FulRan=T
         wScrn=  0.000000 ICntrl=       500 IOpCl=  0 I1Cent=   200000004 NGrid=           0
         NMat0=    1 NMatS0=      1 NMatT0=    0 NMatD0=    1 NMtDS0=    0 NMtDT0=    0
 Petite list used in FoFCou.
 Harris En= -1249.91229768089    
 JPrj=0 DoOrth=F DoCkMO=F.
 Leave Link  401 at Thu Feb  6 12:58:35 2025, MaxMem=  8053063680 cpu:              53.5 elap:               3.4
 (Enter /opt/apps/g16_avx2/tar//g16/l502.exe)
 Integral symmetry usage will be decided dynamically.
 Closed shell SCF:
 Using DIIS extrapolation, IDIIS=  1040.
 NGot=  8053063680 LenX=  8052009241 LenY=  8051490121
 Requested convergence on RMS density matrix=1.00D-08 within 128 cycles.
 Requested convergence on MAX density matrix=1.00D-06.
 Requested convergence on             energy=1.00D-06.
 No special actions if energy rises.
 Fock matrices will be formed incrementally for  20 cycles.

 Cycle   1  Pass 1  IDiag  1:
 FoFJK:  IHMeth= 1 ICntrl=       0 DoSepK=F KAlg= 0 I1Cent=           0 FoldK=F
 IRaf= 800000000 NMat=       1 IRICut=       1 DoRegI=T DoRafI=F ISym2E= 0 IDoP0=0 IntGTp=1.
 FoFCou: FMM=F IPFlag=           0 FMFlag=      100000 FMFlg1=           0
         NFxFlg=           0 DoJE=F BraDBF=F KetDBF=F FulRan=T
         wScrn=  0.000000 ICntrl=         0 IOpCl=  0 I1Cent=           0 NGrid=           0
         NMat0=    1 NMatS0=      1 NMatT0=    0 NMatD0=    1 NMtDS0=    0 NMtDT0=    0
 Symmetry not used in FoFCou.
 Inv3:  Mode=1 IEnd=    14838528.
 Iteration    1 A*A^-1 deviation from unit magnitude is 3.33D-15 for   1897.
 Iteration    1 A*A^-1 deviation from orthogonality  is 2.00D-15 for   2091    159.
 Iteration    1 A^-1*A deviation from unit magnitude is 3.33D-15 for   1897.
 Iteration    1 A^-1*A deviation from orthogonality  is 2.18D-15 for   1387    619.
 E= -1249.64349617779    
 DIIS: error= 1.26D-02 at cycle   1 NSaved=   1.
 NSaved= 1 IEnMin= 1 EnMin= -1249.64349617779     IErMin= 1 ErrMin= 1.26D-02
 ErrMax= 1.26D-02  0.00D+00 EMaxC= 1.00D-01 BMatC= 3.49D-01 BMatP= 3.49D-01
 IDIUse=3 WtCom= 8.74D-01 WtEn= 1.26D-01
 Coeff-Com:  0.100D+01
 Coeff-En:   0.100D+01
 Coeff:      0.100D+01
 Gap=     0.258 Goal=   None    Shift=    0.000
 GapD=    0.258 DampG=1.000 DampE=0.500 DampFc=0.5000 IDamp=-1.
 Damping current iteration by 5.00D-01
 RMSDP=2.78D-03 MaxDP=4.12D-01              OVMax= 2.75D-01

 Cycle   2  Pass 1  IDiag  1:
 RMSU=  1.39D-03    CP:  1.01D+00
 E= -1249.71227179141     Delta-E=       -0.068775613624 Rises=F Damp=T
 DIIS: error= 5.42D-03 at cycle   2 NSaved=   2.
 NSaved= 2 IEnMin= 2 EnMin= -1249.71227179141     IErMin= 2 ErrMin= 5.42D-03
 ErrMax= 5.42D-03  0.00D+00 EMaxC= 1.00D-01 BMatC= 4.90D-02 BMatP= 3.49D-01
 IDIUse=3 WtCom= 9.46D-01 WtEn= 5.42D-02
 Coeff-Com:  0.136D+00 0.864D+00
 Coeff-En:   0.294D+00 0.706D+00
 Coeff:      0.144D+00 0.856D+00
 Gap=     0.293 Goal=   None    Shift=    0.000
 RMSDP=1.01D-03 MaxDP=1.56D-01 DE=-6.88D-02 OVMax= 1.80D-01

 Cycle   3  Pass 1  IDiag  1:
 RMSU=  6.40D-04    CP:  9.91D-01  4.44D-01
 E= -1249.83794905973     Delta-E=       -0.125677268319 Rises=F Damp=F
 DIIS: error= 5.79D-03 at cycle   3 NSaved=   3.
 NSaved= 3 IEnMin= 3 EnMin= -1249.83794905973     IErMin= 2 ErrMin= 5.42D-03
 ErrMax= 5.79D-03  0.00D+00 EMaxC= 1.00D-01 BMatC= 3.76D-02 BMatP= 4.90D-02
 IDIUse=3 WtCom= 9.42D-01 WtEn= 5.79D-02
 Coeff-Com: -0.438D-01 0.468D+00 0.575D+00
 Coeff-En:   0.000D+00 0.000D+00 0.100D+01
 Coeff:     -0.412D-01 0.441D+00 0.600D+00
 Gap=     0.246 Goal=   None    Shift=    0.000
 RMSDP=3.59D-04 MaxDP=2.18D-02 DE=-1.26D-01 OVMax= 5.75D-02

 Cycle   4  Pass 1  IDiag  1:
 RMSU=  3.25D-04    CP:  9.88D-01  5.16D-01  8.26D-01
 E= -1249.86160555169     Delta-E=       -0.023656491959 Rises=F Damp=F
 DIIS: error= 1.41D-03 at cycle   4 NSaved=   4.
 NSaved= 4 IEnMin= 4 EnMin= -1249.86160555169     IErMin= 4 ErrMin= 1.41D-03
 ErrMax= 1.41D-03  0.00D+00 EMaxC= 1.00D-01 BMatC= 4.52D-03 BMatP= 3.76D-02
 IDIUse=3 WtCom= 9.86D-01 WtEn= 1.41D-02
 Coeff-Com: -0.384D-01 0.140D+00 0.313D+00 0.585D+00
 Coeff-En:   0.000D+00 0.000D+00 0.671D-01 0.933D+00
 Coeff:     -0.379D-01 0.138D+00 0.310D+00 0.590D+00
 Gap=     0.243 Goal=   None    Shift=    0.000
 RMSDP=1.25D-04 MaxDP=8.13D-03 DE=-2.37D-02 OVMax= 1.62D-02

 Cycle   5  Pass 1  IDiag  1:
 RMSU=  7.31D-05    CP:  9.88D-01  5.29D-01  9.02D-01  7.33D-01
 E= -1249.86459542546     Delta-E=       -0.002989873767 Rises=F Damp=F
 DIIS: error= 5.89D-04 at cycle   5 NSaved=   5.
 NSaved= 5 IEnMin= 5 EnMin= -1249.86459542546     IErMin= 5 ErrMin= 5.89D-04
 ErrMax= 5.89D-04  0.00D+00 EMaxC= 1.00D-01 BMatC= 5.28D-04 BMatP= 4.52D-03
 IDIUse=3 WtCom= 9.94D-01 WtEn= 5.89D-03
 Coeff-Com: -0.177D-01 0.417D-01 0.119D+00 0.335D+00 0.522D+00
 Coeff-En:   0.000D+00 0.000D+00 0.000D+00 0.529D-01 0.947D+00
 Coeff:     -0.176D-01 0.415D-01 0.118D+00 0.334D+00 0.524D+00
 Gap=     0.243 Goal=   None    Shift=    0.000
 RMSDP=4.13D-05 MaxDP=2.86D-03 DE=-2.99D-03 OVMax= 5.65D-03

 Cycle   6  Pass 1  IDiag  1:
 RMSU=  1.93D-05    CP:  9.88D-01  5.30D-01  8.84D-01  7.72D-01  5.60D-01
 E= -1249.86497456955     Delta-E=       -0.000379144087 Rises=F Damp=F
 DIIS: error= 1.80D-04 at cycle   6 NSaved=   6.
 NSaved= 6 IEnMin= 6 EnMin= -1249.86497456955     IErMin= 6 ErrMin= 1.80D-04
 ErrMax= 1.80D-04  0.00D+00 EMaxC= 1.00D-01 BMatC= 2.45D-05 BMatP= 5.28D-04
 IDIUse=3 WtCom= 9.98D-01 WtEn= 1.80D-03
 Coeff-Com: -0.633D-02 0.113D-01 0.343D-01 0.121D+00 0.255D+00 0.584D+00
 Coeff-En:   0.000D+00 0.000D+00 0.000D+00 0.000D+00 0.000D+00 0.100D+01
 Coeff:     -0.632D-02 0.113D-01 0.342D-01 0.121D+00 0.255D+00 0.585D+00
 Gap=     0.243 Goal=   None    Shift=    0.000
 RMSDP=8.65D-06 MaxDP=5.65D-04 DE=-3.79D-04 OVMax= 1.12D-03

 Cycle   7  Pass 1  IDiag  1:
 RMSU=  5.73D-06    CP:  9.88D-01  5.31D-01  8.85D-01  7.62D-01  5.96D-01
                    CP:  7.88D-01
 E= -1249.86499295889     Delta-E=       -0.000018389341 Rises=F Damp=F
 DIIS: error= 3.64D-05 at cycle   7 NSaved=   7.
 NSaved= 7 IEnMin= 7 EnMin= -1249.86499295889     IErMin= 7 ErrMin= 3.64D-05
 ErrMax= 3.64D-05  0.00D+00 EMaxC= 1.00D-01 BMatC= 2.08D-06 BMatP= 2.45D-05
 IDIUse=1 WtCom= 1.00D+00 WtEn= 0.00D+00
 Coeff-Com: -0.166D-02 0.213D-02 0.607D-02 0.300D-01 0.792D-01 0.280D+00
 Coeff-Com:  0.605D+00
 Coeff:     -0.166D-02 0.213D-02 0.607D-02 0.300D-01 0.792D-01 0.280D+00
 Coeff:      0.605D+00
 Gap=     0.243 Goal=   None    Shift=    0.000
 RMSDP=2.88D-06 MaxDP=2.70D-04 DE=-1.84D-05 OVMax= 2.51D-04

 Cycle   8  Pass 1  IDiag  1:
 RMSU=  1.53D-06    CP:  9.88D-01  5.31D-01  8.86D-01  7.67D-01  5.97D-01
                    CP:  8.21D-01  7.98D-01
 E= -1249.86499439915     Delta-E=       -0.000001440262 Rises=F Damp=F
 DIIS: error= 1.51D-05 at cycle   8 NSaved=   8.
 NSaved= 8 IEnMin= 8 EnMin= -1249.86499439915     IErMin= 8 ErrMin= 1.51D-05
 ErrMax= 1.51D-05  0.00D+00 EMaxC= 1.00D-01 BMatC= 1.79D-07 BMatP= 2.08D-06
 IDIUse=1 WtCom= 1.00D+00 WtEn= 0.00D+00
 Coeff-Com: -0.141D-03-0.283D-04-0.702D-03 0.121D-02 0.937D-02 0.626D-01
 Coeff-Com:  0.269D+00 0.659D+00
 Coeff:     -0.141D-03-0.283D-04-0.702D-03 0.121D-02 0.937D-02 0.626D-01
 Coeff:      0.269D+00 0.659D+00
 Gap=     0.243 Goal=   None    Shift=    0.000
 RMSDP=6.33D-07 MaxDP=4.08D-05 DE=-1.44D-06 OVMax= 9.83D-05

 Cycle   9  Pass 1  IDiag  1:
 RMSU=  4.20D-07    CP:  9.88D-01  5.31D-01  8.86D-01  7.66D-01  5.97D-01
                    CP:  8.31D-01  8.41D-01  8.49D-01
 E= -1249.86499452472     Delta-E=       -0.000000125570 Rises=F Damp=F
 DIIS: error= 4.65D-06 at cycle   9 NSaved=   9.
 NSaved= 9 IEnMin= 9 EnMin= -1249.86499452472     IErMin= 9 ErrMin= 4.65D-06
 ErrMax= 4.65D-06  0.00D+00 EMaxC= 1.00D-01 BMatC= 1.91D-08 BMatP= 1.79D-07
 IDIUse=1 WtCom= 1.00D+00 WtEn= 0.00D+00
 Coeff-Com:  0.722D-04-0.190D-03-0.865D-03-0.207D-02-0.282D-02 0.197D-02
 Coeff-Com:  0.638D-01 0.313D+00 0.627D+00
 Coeff:      0.722D-04-0.190D-03-0.865D-03-0.207D-02-0.282D-02 0.197D-02
 Coeff:      0.638D-01 0.313D+00 0.627D+00
 Gap=     0.243 Goal=   None    Shift=    0.000
 RMSDP=1.90D-07 MaxDP=1.12D-05 DE=-1.26D-07 OVMax= 2.98D-05

 Cycle  10  Pass 1  IDiag  1:
 RMSU=  1.11D-07    CP:  9.88D-01  5.31D-01  8.85D-01  7.66D-01  5.96D-01
                    CP:  8.33D-01  8.50D-01  8.98D-01  7.53D-01
 E= -1249.86499454049     Delta-E=       -0.000000015776 Rises=F Damp=F
 DIIS: error= 6.57D-07 at cycle  10 NSaved=  10.
 NSaved=10 IEnMin=10 EnMin= -1249.86499454049     IErMin=10 ErrMin= 6.57D-07
 ErrMax= 6.57D-07  0.00D+00 EMaxC= 1.00D-01 BMatC= 6.79D-10 BMatP= 1.91D-08
 IDIUse=1 WtCom= 1.00D+00 WtEn= 0.00D+00
 Coeff-Com:  0.286D-04-0.696D-04-0.332D-03-0.843D-03-0.138D-02-0.104D-02
 Coeff-Com:  0.183D-01 0.108D+00 0.258D+00 0.620D+00
 Coeff:      0.286D-04-0.696D-04-0.332D-03-0.843D-03-0.138D-02-0.104D-02
 Coeff:      0.183D-01 0.108D+00 0.258D+00 0.620D+00
 Gap=     0.243 Goal=   None    Shift=    0.000
 RMSDP=5.11D-08 MaxDP=3.34D-06 DE=-1.58D-08 OVMax= 1.06D-05

 Cycle  11  Pass 1  IDiag  1:
 RMSU=  4.08D-08    CP:  9.88D-01  5.31D-01  8.85D-01  7.66D-01  5.97D-01
                    CP:  8.33D-01  8.53D-01  9.03D-01  7.82D-01  8.74D-01
 E= -1249.86499454096     Delta-E=       -0.000000000468 Rises=F Damp=F
 DIIS: error= 3.64D-07 at cycle  11 NSaved=  11.
 NSaved=11 IEnMin=11 EnMin= -1249.86499454096     IErMin=11 ErrMin= 3.64D-07
 ErrMax= 3.64D-07  0.00D+00 EMaxC= 1.00D-01 BMatC= 1.82D-10 BMatP= 6.79D-10
 IDIUse=1 WtCom= 1.00D+00 WtEn= 0.00D+00
 Coeff-Com:  0.430D-05-0.701D-05-0.510D-04-0.133D-03-0.339D-03-0.996D-03
 Coeff-Com: -0.113D-02 0.510D-02 0.342D-01 0.351D+00 0.613D+00
 Coeff:      0.430D-05-0.701D-05-0.510D-04-0.133D-03-0.339D-03-0.996D-03
 Coeff:     -0.113D-02 0.510D-02 0.342D-01 0.351D+00 0.613D+00
 Gap=     0.243 Goal=   None    Shift=    0.000
 RMSDP=1.82D-08 MaxDP=1.65D-06 DE=-4.68D-10 OVMax= 3.59D-06

 Cycle  12  Pass 1  IDiag  1:
 RMSU=  1.20D-08    CP:  9.88D-01  5.31D-01  8.85D-01  7.66D-01  5.97D-01
                    CP:  8.33D-01  8.52D-01  9.07D-01  7.83D-01  9.22D-01
                    CP:  8.00D-01
 E= -1249.86499454109     Delta-E=       -0.000000000132 Rises=F Damp=F
 DIIS: error= 5.21D-08 at cycle  12 NSaved=  12.
 NSaved=12 IEnMin=12 EnMin= -1249.86499454109     IErMin=12 ErrMin= 5.21D-08
 ErrMax= 5.21D-08  0.00D+00 EMaxC= 1.00D-01 BMatC= 5.31D-12 BMatP= 1.82D-10
 IDIUse=1 WtCom= 1.00D+00 WtEn= 0.00D+00
 Coeff-Com: -0.269D-06 0.218D-05-0.121D-06 0.450D-05-0.546D-04-0.278D-03
 Coeff-Com: -0.163D-02-0.558D-02-0.594D-02 0.829D-01 0.197D+00 0.734D+00
 Coeff:     -0.269D-06 0.218D-05-0.121D-06 0.450D-05-0.546D-04-0.278D-03
 Coeff:     -0.163D-02-0.558D-02-0.594D-02 0.829D-01 0.197D+00 0.734D+00
 Gap=     0.243 Goal=   None    Shift=    0.000
 RMSDP=5.94D-09 MaxDP=4.48D-07 DE=-1.32D-10 OVMax= 4.86D-07

 Error on total polarization charges =  0.00803
 SCF Done:  E(RPBE1PBE) =  -1249.86499454     A.U. after   12 cycles
            NFock= 12  Conv=0.59D-08     -V/T= 2.0037
 KE= 1.245306022058D+03 PE=-6.232631706944D+03 EE= 2.099036648356D+03
 Leave Link  502 at Thu Feb  6 13:00:33 2025, MaxMem=  8053063680 cpu:            1879.6 elap:             118.0
 (Enter /opt/apps/g16_avx2/tar//g16/l601.exe)
 Copying SCF densities to generalized density rwf, IOpCl= 0 IROHF=0.

 **********************************************************************

            Population analysis using the SCF Density.

 **********************************************************************

 Orbital symmetries:
       Occupied  (A) (A) (A) (A) (A) (A) (A) (A) (A) (A) (A) (A)
                 (A) (A) (A) (A) (A) (A) (A) (A) (A) (A) (A) (A)
                 (A) (A) (A) (A) (A) (A) (A) (A) (A) (A) (A) (A)
                 (A) (A) (A) (A) (A) (A) (A) (A) (A) (A) (A) (A)
                 (A) (A) (A) (A) (A) (A) (A) (A) (A) (A) (A) (A)
                 (A) (A) (A) (A) (A) (A) (A) (A) (A) (A) (A) (A)
                 (A)
       Virtual   (A) (A) (A) (A) (A) (A) (A) (A) (A) (A) (A) (A)
                 (A) (A) (A) (A) (A) (A) (A) (A) (A) (A) (A) (A)
                 (A) (A) (A) (A) (A) (A) (A) (A) (A) (A) (A) (A)
                 (A) (A) (A) (A) (A) (A) (A) (A) (A) (A) (A) (A)
                 (A) (A) (A) (A) (A) (A) (A) (A) (A) (A) (A) (A)
                 (A) (A) (A) (A) (A) (A) (A) (A) (A) (A) (A) (A)
                 (A) (A) (A) (A) (A) (A) (A) (A) (A) (A) (A) (A)
                 (A) (A) (A) (A) (A) (A) (A) (A) (A) (A) (A) (A)
                 (A) (A) (A) (A) (A) (A) (A) (A) (A) (A) (A) (A)
                 (A) (A) (A) (A) (A) (A) (A) (A) (A) (A) (A) (A)
                 (A) (A) (A) (A) (A) (A) (A) (A) (A) (A) (A) (A)
                 (A) (A) (A) (A) (A) (A) (A) (A) (A) (A) (A) (A)
                 (A) (A) (A) (A) (A) (A) (A) (A) (A) (A) (A) (A)
                 (A) (A) (A) (A) (A) (A) (A) (A) (A) (A) (A) (A)
                 (A) (A) (A) (A) (A) (A) (A) (A) (A) (A) (A) (A)
                 (A) (A) (A) (A) (A) (A) (A) (A) (A) (A) (A) (A)
                 (A) (A) (A) (A) (A) (A) (A) (A) (A) (A) (A) (A)
                 (A) (A) (A) (A) (A) (A) (A) (A) (A) (A) (A) (A)
                 (A) (A) (A) (A) (A) (A) (A) (A) (A) (A) (A) (A)
                 (A) (A) (A) (A) (A) (A) (A) (A) (A) (A) (A) (A)
                 (A) (A) (A) (A) (A) (A) (A) (A) (A) (A) (A) (A)
                 (A) (A) (A) (A) (A) (A) (A) (A) (A) (A) (A) (A)
                 (A) (A) (A) (A) (A) (A) (A) (A) (A) (A) (A) (A)
                 (A) (A) (A) (A) (A) (A) (A) (A) (A) (A) (A) (A)
                 (A) (A) (A) (A) (A) (A) (A) (A) (A) (A) (A) (A)
                 (A) (A) (A) (A) (A) (A) (A) (A) (A) (A) (A) (A)
                 (A) (A) (A) (A) (A) (A) (A) (A) (A) (A) (A) (A)
                 (A) (A) (A) (A) (A) (A) (A) (A) (A) (A) (A) (A)
                 (A) (A) (A) (A) (A) (A) (A) (A) (A) (A) (A) (A)
                 (A) (A) (A) (A) (A) (A) (A) (A) (A) (A) (A) (A)
                 (A) (A) (A) (A) (A) (A) (A) (A) (A) (A) (A) (A)
                 (A) (A) (A) (A) (A) (A) (A) (A) (A) (A) (A) (A)
                 (A) (A) (A) (A) (A) (A) (A) (A) (A) (A) (A) (A)
                 (A) (A) (A) (A) (A) (A) (A) (A) (A) (A) (A) (A)
                 (A) (A) (A) (A) (A) (A) (A) (A) (A) (A) (A) (A)
                 (A) (A) (A) (A) (A) (A) (A) (A) (A) (A) (A) (A)
                 (A) (A) (A) (A) (A) (A) (A) (A) (A) (A) (A) (A)
                 (A) (A) (A) (A) (A) (A) (A) (A) (A) (A) (A) (A)
                 (A) (A) (A) (A) (A) (A) (A) (A) (A) (A) (A) (A)
                 (A) (A) (A) (A) (A) (A) (A) (A) (A) (A) (A) (A)
                 (A) (A) (A) (A) (A) (A) (A) (A) (A) (A) (A) (A)
                 (A) (A) (A) (A) (A) (A) (A) (A) (A) (A) (A) (A)
                 (A) (A) (A) (A) (A) (A) (A) (A) (A) (A) (A) (A)
                 (A) (A) (A) (A) (A) (A) (A) (A) (A) (A) (A) (A)
                 (A) (A) (A) (A) (A) (A) (A) (A) (A) (A) (A) (A)
                 (A) (A) (A) (A) (A) (A) (A) (A) (A) (A) (A) (A)
 The electronic state is 1-A.
 Alpha  occ. eigenvalues --  -24.81750 -24.81636 -24.81617 -24.81525 -24.80917
 Alpha  occ. eigenvalues --  -24.79963 -24.79517 -19.24205 -19.16464 -14.48257
 Alpha  occ. eigenvalues --  -10.39127 -10.37724 -10.34319 -10.34133 -10.34040
 Alpha  occ. eigenvalues --  -10.33757 -10.33597 -10.31301 -10.26718  -1.30909
 Alpha  occ. eigenvalues --   -1.30858  -1.30218  -1.29565  -1.28809  -1.28425
 Alpha  occ. eigenvalues --   -1.25083  -1.11889  -1.04504  -0.99698  -0.92735
 Alpha  occ. eigenvalues --   -0.81125  -0.80941  -0.77545  -0.73736  -0.69572
 Alpha  occ. eigenvalues --   -0.69524  -0.65280  -0.62612  -0.62582  -0.60739
 Alpha  occ. eigenvalues --   -0.59876  -0.59168  -0.59068  -0.57516  -0.56930
 Alpha  occ. eigenvalues --   -0.56045  -0.55521  -0.54966  -0.54386  -0.52707
 Alpha  occ. eigenvalues --   -0.51762  -0.50037  -0.49740  -0.49492  -0.48617
 Alpha  occ. eigenvalues --   -0.47437  -0.46996  -0.46494  -0.46126  -0.44752
 Alpha  occ. eigenvalues --   -0.44585  -0.44007  -0.42616  -0.42066  -0.41597
 Alpha  occ. eigenvalues --   -0.41075  -0.38775  -0.37116  -0.33607  -0.30380
 Alpha  occ. eigenvalues --   -0.27966  -0.27309  -0.26586
 Alpha virt. eigenvalues --   -0.02249  -0.01351  -0.01159   0.03345   0.06428
 Alpha virt. eigenvalues --    0.06958   0.07541   0.08665   0.09991   0.10352
 Alpha virt. eigenvalues --    0.11626   0.12209   0.13304   0.14011   0.14261
 Alpha virt. eigenvalues --    0.16175   0.16585   0.17675   0.18464   0.19241
 Alpha virt. eigenvalues --    0.20346   0.20618   0.21085   0.21878   0.22806
 Alpha virt. eigenvalues --    0.23717   0.23919   0.24996   0.25263   0.26008
 Alpha virt. eigenvalues --    0.26952   0.28509   0.28814   0.29008   0.29489
 Alpha virt. eigenvalues --    0.30220   0.31333   0.31828   0.32249   0.33257
 Alpha virt. eigenvalues --    0.33530   0.34737   0.36091   0.36208   0.37571
 Alpha virt. eigenvalues --    0.38491   0.39016   0.39580   0.39849   0.40520
 Alpha virt. eigenvalues --    0.40964   0.41597   0.42388   0.42953   0.42980
 Alpha virt. eigenvalues --    0.44073   0.44289   0.44633   0.45332   0.46200
 Alpha virt. eigenvalues --    0.46477   0.46766   0.47849   0.48484   0.49124
 Alpha virt. eigenvalues --    0.51445   0.52202   0.53358   0.54001   0.54368
 Alpha virt. eigenvalues --    0.55886   0.56508   0.57302   0.58887   0.60996
 Alpha virt. eigenvalues --    0.61855   0.62576   0.63151   0.64421   0.64763
 Alpha virt. eigenvalues --    0.66650   0.67218   0.67882   0.69228   0.70372
 Alpha virt. eigenvalues --    0.70562   0.71595   0.72449   0.73329   0.73827
 Alpha virt. eigenvalues --    0.74244   0.75629   0.77196   0.77832   0.79369
 Alpha virt. eigenvalues --    0.79562   0.80053   0.81871   0.82406   0.83609
 Alpha virt. eigenvalues --    0.84561   0.84811   0.85028   0.86363   0.86519
 Alpha virt. eigenvalues --    0.86731   0.87995   0.88261   0.88925   0.90611
 Alpha virt. eigenvalues --    0.91397   0.92106   0.94785   0.94984   0.95442
 Alpha virt. eigenvalues --    0.96744   0.97600   0.98796   0.99695   0.99912
 Alpha virt. eigenvalues --    1.01591   1.02117   1.03662   1.04211   1.05090
 Alpha virt. eigenvalues --    1.05620   1.06607   1.09712   1.10059   1.11434
 Alpha virt. eigenvalues --    1.12051   1.12220   1.14164   1.15451   1.16874
 Alpha virt. eigenvalues --    1.17791   1.18834   1.20549   1.21858   1.23546
 Alpha virt. eigenvalues --    1.24525   1.26926   1.28180   1.29869   1.32003
 Alpha virt. eigenvalues --    1.32733   1.34091   1.35068   1.37719   1.39131
 Alpha virt. eigenvalues --    1.39625   1.41603   1.42751   1.44498   1.44822
 Alpha virt. eigenvalues --    1.45805   1.47086   1.47846   1.48873   1.51646
 Alpha virt. eigenvalues --    1.52467   1.54751   1.55292   1.56272   1.57949
 Alpha virt. eigenvalues --    1.58471   1.61327   1.62336   1.62784   1.64417
 Alpha virt. eigenvalues --    1.65208   1.70605   1.71340   1.72434   1.73018
 Alpha virt. eigenvalues --    1.73970   1.74906   1.76541   1.77484   1.78998
 Alpha virt. eigenvalues --    1.80101   1.80392   1.81943   1.83083   1.84800
 Alpha virt. eigenvalues --    1.85374   1.86847   1.88115   1.89626   1.92544
 Alpha virt. eigenvalues --    1.93569   1.95085   1.95215   1.96135   1.96746
 Alpha virt. eigenvalues --    1.97828   1.99414   1.99862   2.00596   2.02508
 Alpha virt. eigenvalues --    2.04317   2.05080   2.05749   2.06922   2.07341
 Alpha virt. eigenvalues --    2.08783   2.08986   2.10932   2.13976   2.14866
 Alpha virt. eigenvalues --    2.15261   2.17342   2.18148   2.19148   2.20395
 Alpha virt. eigenvalues --    2.21303   2.21457   2.22039   2.24417   2.26384
 Alpha virt. eigenvalues --    2.27664   2.28690   2.29710   2.31397   2.31930
 Alpha virt. eigenvalues --    2.33561   2.34465   2.35814   2.36732   2.39562
 Alpha virt. eigenvalues --    2.40763   2.41903   2.42495   2.44182   2.44389
 Alpha virt. eigenvalues --    2.45352   2.47660   2.49086   2.50056   2.50741
 Alpha virt. eigenvalues --    2.52556   2.54622   2.56631   2.57237   2.57979
 Alpha virt. eigenvalues --    2.60064   2.60957   2.61484   2.62367   2.63026
 Alpha virt. eigenvalues --    2.63608   2.64194   2.65515   2.66522   2.68483
 Alpha virt. eigenvalues --    2.69881   2.70925   2.73908   2.76156   2.76650
 Alpha virt. eigenvalues --    2.78537   2.79281   2.80336   2.81395   2.82871
 Alpha virt. eigenvalues --    2.83279   2.84892   2.85048   2.85953   2.87580
 Alpha virt. eigenvalues --    2.88923   2.89537   2.90089   2.90438   2.90922
 Alpha virt. eigenvalues --    2.91692   2.94105   2.94706   2.95887   2.96365
 Alpha virt. eigenvalues --    2.97753   2.98729   2.99794   3.00582   3.01751
 Alpha virt. eigenvalues --    3.03905   3.04723   3.05502   3.06903   3.08018
 Alpha virt. eigenvalues --    3.09956   3.10566   3.11561   3.12023   3.13505
 Alpha virt. eigenvalues --    3.13918   3.15076   3.16288   3.17311   3.17931
 Alpha virt. eigenvalues --    3.18262   3.19513   3.19882   3.20801   3.21072
 Alpha virt. eigenvalues --    3.21943   3.23083   3.23409   3.24210   3.25110
 Alpha virt. eigenvalues --    3.26070   3.28752   3.30470   3.31247   3.31637
 Alpha virt. eigenvalues --    3.35597   3.36337   3.37951   3.38933   3.40256
 Alpha virt. eigenvalues --    3.41004   3.42338   3.44273   3.44419   3.45026
 Alpha virt. eigenvalues --    3.45704   3.46046   3.46908   3.47598   3.49522
 Alpha virt. eigenvalues --    3.50024   3.51174   3.52541   3.53268   3.54877
 Alpha virt. eigenvalues --    3.55590   3.57648   3.59767   3.60750   3.61970
 Alpha virt. eigenvalues --    3.63303   3.64429   3.66687   3.69592   3.71584
 Alpha virt. eigenvalues --    3.72337   3.74886   3.75070   3.77015   3.77479
 Alpha virt. eigenvalues --    3.81801   3.81884   3.83905   3.84417   3.87599
 Alpha virt. eigenvalues --    3.88190   3.90598   3.92301   3.93712   3.95668
 Alpha virt. eigenvalues --    3.96834   3.97893   4.00066   4.01648   4.03810
 Alpha virt. eigenvalues --    4.05015   4.06684   4.07991   4.09943   4.10044
 Alpha virt. eigenvalues --    4.12631   4.13552   4.14122   4.14602   4.16241
 Alpha virt. eigenvalues --    4.17125   4.18824   4.21163   4.21774   4.23026
 Alpha virt. eigenvalues --    4.23670   4.29172   4.31515   4.33505   4.36223
 Alpha virt. eigenvalues --    4.38655   4.39485   4.42045   4.42986   4.46324
 Alpha virt. eigenvalues --    4.49834   4.52295   4.55227   4.60269   4.61094
 Alpha virt. eigenvalues --    4.67067   4.70427   4.79058   4.79277   4.81790
 Alpha virt. eigenvalues --    4.84422   4.85497   4.87105   4.89271   4.91022
 Alpha virt. eigenvalues --    4.93376   4.96342   4.99588   5.07256   5.08585
 Alpha virt. eigenvalues --    5.12819   5.15787   5.17434   5.21217   5.25407
 Alpha virt. eigenvalues --    5.27943   5.30372   5.33745   5.37427   5.39422
 Alpha virt. eigenvalues --    5.42828   5.45521   5.45886   5.49255   5.54809
 Alpha virt. eigenvalues --    5.58419   5.60317   5.67391   5.70284   5.74561
 Alpha virt. eigenvalues --    5.84476   5.85844   5.92299   6.04423   6.21689
 Alpha virt. eigenvalues --    6.30510   6.36691   6.39718   6.40602   6.49813
 Alpha virt. eigenvalues --    6.59338   6.72283   6.76807   6.84763   6.85067
 Alpha virt. eigenvalues --    6.85377   6.85541   6.85951   6.86093   6.86380
 Alpha virt. eigenvalues --    6.86549   6.86769   6.87063   6.87187   6.87214
 Alpha virt. eigenvalues --    6.87698   6.88721   6.89252   6.90653   6.91504
 Alpha virt. eigenvalues --    6.94008   6.95101   6.96319   6.97634   7.00867
 Alpha virt. eigenvalues --    7.01775   7.02747   7.05290   7.06711   7.06864
 Alpha virt. eigenvalues --    7.08499   7.08911   7.10109   7.11814   7.14621
 Alpha virt. eigenvalues --    7.16845   7.17186   7.20110   7.23865   7.25899
 Alpha virt. eigenvalues --    7.26731   7.28076   7.29501   7.29538   7.31170
 Alpha virt. eigenvalues --    7.32424   7.35771   7.36720   7.38876   7.41100
 Alpha virt. eigenvalues --    7.43602   7.46670   7.50604   7.55255   7.66779
 Alpha virt. eigenvalues --    7.67376   7.75482   8.08831   8.30650   8.32837
 Alpha virt. eigenvalues --    8.33631   8.35584   8.37066   8.38022   8.42251
 Alpha virt. eigenvalues --    8.42940   8.43352   8.47281   8.53916   8.56397
 Alpha virt. eigenvalues --    8.58766   8.69354   8.72770   8.75833   8.76341
 Alpha virt. eigenvalues --    8.77199   8.79967   8.80781   8.82110   8.87062
 Alpha virt. eigenvalues --    8.87404   8.89404   8.92935   8.94460   8.96697
 Alpha virt. eigenvalues --    9.01489   9.02254   9.02447   9.05802   9.07507
 Alpha virt. eigenvalues --    9.09775   9.12597   9.39995  22.27916  22.43523
 Alpha virt. eigenvalues --   22.67432  22.96824  22.97797  22.99779  23.13216
 Alpha virt. eigenvalues --   23.14850  23.75262  32.27818  44.21871  44.56156
 Alpha virt. eigenvalues --   57.19861  57.31570  57.32492  57.39996  57.46182
 Alpha virt. eigenvalues --   57.53598  57.64948
          Condensed to atoms (all electrons):
               1          2          3          4          5          6
     1  H    0.409257   0.005431  -0.007241   0.345482  -0.019329  -0.018884
     2  O    0.005431   8.019217   0.662281  -0.095441   0.004666  -0.010262
     3  C   -0.007241   0.662281   4.964461   0.104035   0.002412  -0.040886
     4  N    0.345482  -0.095441   0.104035   6.270824   0.341046   0.289703
     5  H   -0.019329   0.004666   0.002412   0.341046   0.405390  -0.021704
     6  C   -0.018884  -0.010262  -0.040886   0.289703  -0.021704   4.912869
     7  H    0.006088   0.000479  -0.005038  -0.026992  -0.005010   0.406849
     8  H   -0.003369   0.016971   0.003702  -0.039615   0.006344   0.403507
     9  H   -0.007454  -0.000192   0.004676  -0.020731  -0.003504   0.399199
    10  O   -0.003642  -0.083922   0.161542  -0.032901   0.002070   0.004840
    11  C   -0.004636  -0.034913  -0.140214   0.031968  -0.000906  -0.000752
    12  C    0.000912   0.031500   0.016406  -0.018800   0.002333   0.000175
    13  C    0.000453   0.032137  -0.031356   0.006577  -0.000527  -0.000089
    14  C   -0.000925  -0.003920   0.001806   0.000075   0.000036   0.000107
    15  C   -0.000013  -0.004755  -0.000257   0.000224  -0.000033  -0.000005
    16  C    0.000024   0.000445   0.000594  -0.000128   0.000007  -0.000003
    17  F    0.010251  -0.000606  -0.000586  -0.001915   0.000149  -0.000088
    18  F   -0.000004  -0.001330   0.002617  -0.000034  -0.000000   0.000008
    19  F   -0.000017  -0.000001   0.000029  -0.000001  -0.000000   0.000000
    20  F   -0.000000   0.000000   0.000016  -0.000000   0.000000   0.000000
    21  F    0.000000  -0.000000  -0.000002   0.000000   0.000000  -0.000000
    22  C    0.003636  -0.041995   0.323325  -0.013601  -0.003877  -0.000075
    23  H   -0.000609   0.005125  -0.094752   0.008529  -0.001610   0.002206
    24  F   -0.000151   0.000278  -0.066881   0.002396  -0.000013  -0.000167
    25  F   -0.000301   0.000181  -0.066309   0.003893   0.000064  -0.000899
               7          8          9         10         11         12
     1  H    0.006088  -0.003369  -0.007454  -0.003642  -0.004636   0.000912
     2  O    0.000479   0.016971  -0.000192  -0.083922  -0.034913   0.031500
     3  C   -0.005038   0.003702   0.004676   0.161542  -0.140214   0.016406
     4  N   -0.026992  -0.039615  -0.020731  -0.032901   0.031968  -0.018800
     5  H   -0.005010   0.006344  -0.003504   0.002070  -0.000906   0.002333
     6  C    0.406849   0.403507   0.399199   0.004840  -0.000752   0.000175
     7  H    0.483114  -0.016715  -0.018732  -0.000096   0.000046   0.000062
     8  H   -0.016715   0.487253  -0.019993   0.000736  -0.000779   0.000349
     9  H   -0.018732  -0.019993   0.492212  -0.000013   0.000124  -0.000114
    10  O   -0.000096   0.000736  -0.000013   8.083533   0.272423  -0.028849
    11  C    0.000046  -0.000779   0.000124   0.272423   5.476230   0.114264
    12  C    0.000062   0.000349  -0.000114  -0.028849   0.114264   5.301532
    13  C   -0.000010  -0.000166   0.000005  -0.027252   0.220960   0.026045
    14  C   -0.000001   0.000012  -0.000002   0.009061   0.015833   0.274596
    15  C   -0.000001   0.000002   0.000001   0.010355  -0.016248  -0.027228
    16  C    0.000000   0.000003  -0.000001   0.001326  -0.000743  -0.060113
    17  F   -0.000011   0.000011   0.000019  -0.001040  -0.037090   0.240695
    18  F    0.000000   0.000001   0.000000   0.001774  -0.065564   0.006006
    19  F    0.000000  -0.000000   0.000000  -0.000058   0.009355  -0.054263
    20  F    0.000000  -0.000000  -0.000000  -0.000064   0.009751  -0.000974
    21  F   -0.000000  -0.000000   0.000000  -0.000001  -0.001044   0.008966
    22  C    0.002551  -0.002661   0.000111  -0.032425  -0.000845  -0.000288
    23  H   -0.002093  -0.000301   0.000250   0.007863  -0.000283  -0.002056
    24  F    0.000068  -0.000009   0.000009   0.002242  -0.001096  -0.000277
    25  F    0.001660  -0.001617   0.001012   0.001930   0.000061  -0.000083
              13         14         15         16         17         18
     1  H    0.000453  -0.000925  -0.000013   0.000024   0.010251  -0.000004
     2  O    0.032137  -0.003920  -0.004755   0.000445  -0.000606  -0.001330
     3  C   -0.031356   0.001806  -0.000257   0.000594  -0.000586   0.002617
     4  N    0.006577   0.000075   0.000224  -0.000128  -0.001915  -0.000034
     5  H   -0.000527   0.000036  -0.000033   0.000007   0.000149  -0.000000
     6  C   -0.000089   0.000107  -0.000005  -0.000003  -0.000088   0.000008
     7  H   -0.000010  -0.000001  -0.000001   0.000000  -0.000011   0.000000
     8  H   -0.000166   0.000012   0.000002   0.000003   0.000011   0.000001
     9  H    0.000005  -0.000002   0.000001  -0.000001   0.000019   0.000000
    10  O   -0.027252   0.009061   0.010355   0.001326  -0.001040   0.001774
    11  C    0.220960   0.015833  -0.016248  -0.000743  -0.037090  -0.065564
    12  C    0.026045   0.274596  -0.027228  -0.060113   0.240695   0.006006
    13  C    5.118685  -0.007063   0.322171  -0.078662   0.006057   0.292397
    14  C   -0.007063   4.997464  -0.044584   0.391321  -0.029632  -0.001003
    15  C    0.322171  -0.044584   5.012736   0.386021  -0.000333  -0.036947
    16  C   -0.078662   0.391321   0.386021   4.987973   0.006789   0.007255
    17  F    0.006057  -0.029632  -0.000333   0.006789   8.995736  -0.000030
    18  F    0.292397  -0.001003  -0.036947   0.007255  -0.000030   8.966636
    19  F   -0.001216   0.294822   0.007041  -0.045215   0.000623   0.000000
    20  F   -0.051605   0.007262   0.290444  -0.045482   0.000000   0.000528
    21  F    0.008246  -0.045878  -0.045328   0.285150  -0.000027  -0.000028
    22  C    0.002052  -0.000295   0.000788  -0.000075   0.000080   0.002686
    23  H    0.001427   0.000030   0.000099  -0.000016   0.000002  -0.000257
    24  F    0.004625   0.000011   0.000771  -0.000014   0.000000  -0.001821
    25  F    0.000112  -0.000000   0.000008  -0.000000   0.000000  -0.000001
              19         20         21         22         23         24
     1  H   -0.000017  -0.000000   0.000000   0.003636  -0.000609  -0.000151
     2  O   -0.000001   0.000000  -0.000000  -0.041995   0.005125   0.000278
     3  C    0.000029   0.000016  -0.000002   0.323325  -0.094752  -0.066881
     4  N   -0.000001  -0.000000   0.000000  -0.013601   0.008529   0.002396
     5  H   -0.000000   0.000000   0.000000  -0.003877  -0.001610  -0.000013
     6  C    0.000000   0.000000  -0.000000  -0.000075   0.002206  -0.000167
     7  H    0.000000   0.000000  -0.000000   0.002551  -0.002093   0.000068
     8  H   -0.000000  -0.000000  -0.000000  -0.002661  -0.000301  -0.000009
     9  H    0.000000  -0.000000   0.000000   0.000111   0.000250   0.000009
    10  O   -0.000058  -0.000064  -0.000001  -0.032425   0.007863   0.002242
    11  C    0.009355   0.009751  -0.001044  -0.000845  -0.000283  -0.001096
    12  C   -0.054263  -0.000974   0.008966  -0.000288  -0.002056  -0.000277
    13  C   -0.001216  -0.051605   0.008246   0.002052   0.001427   0.004625
    14  C    0.294822   0.007262  -0.045878  -0.000295   0.000030   0.000011
    15  C    0.007041   0.290444  -0.045328   0.000788   0.000099   0.000771
    16  C   -0.045215  -0.045482   0.285150  -0.000075  -0.000016  -0.000014
    17  F    0.000623   0.000000  -0.000027   0.000080   0.000002   0.000000
    18  F    0.000000   0.000528  -0.000028   0.002686  -0.000257  -0.001821
    19  F    8.961202  -0.000028   0.001148   0.000000   0.000000   0.000000
    20  F   -0.000028   8.963090   0.001097  -0.000004   0.000000  -0.000000
    21  F    0.001148   0.001097   8.959242   0.000000  -0.000000   0.000000
    22  C    0.000000  -0.000004   0.000000   4.413800   0.443916   0.330660
    23  H    0.000000   0.000000  -0.000000   0.443916   0.616835  -0.043461
    24  F    0.000000  -0.000000   0.000000   0.330660  -0.043461   9.004332
    25  F    0.000000  -0.000000  -0.000000   0.311028  -0.046709  -0.043179
              25
     1  H   -0.000301
     2  O    0.000181
     3  C   -0.066309
     4  N    0.003893
     5  H    0.000064
     6  C   -0.000899
     7  H    0.001660
     8  H   -0.001617
     9  H    0.001012
    10  O    0.001930
    11  C    0.000061
    12  C   -0.000083
    13  C    0.000112
    14  C   -0.000000
    15  C    0.000008
    16  C   -0.000000
    17  F    0.000000
    18  F   -0.000001
    19  F    0.000000
    20  F   -0.000000
    21  F   -0.000000
    22  C    0.311028
    23  H   -0.046709
    24  F   -0.043179
    25  F    9.030867
 Mulliken charges:
               1
     1  H    0.285041
     2  O   -0.501373
     3  C    0.205618
     4  N   -0.154592
     5  H    0.291994
     6  C   -0.325652
     7  H    0.173781
     8  H    0.166332
     9  H    0.173117
    10  O   -0.349433
    11  C    0.154096
    12  C    0.169203
    13  C    0.155996
    14  C    0.140866
    15  C    0.145070
    16  C    0.163543
    17  F   -0.189055
    18  F   -0.172886
    19  F   -0.173421
    20  F   -0.174030
    21  F   -0.171543
    22  C    0.261506
    23  H    0.105863
    24  F   -0.188322
    25  F   -0.191718
 Sum of Mulliken charges =  -0.00000
 Mulliken charges with hydrogens summed into heavy atoms:
               1
     2  O   -0.501373
     3  C    0.205618
     4  N    0.422443
     6  C    0.187578
    10  O   -0.349433
    11  C    0.154096
    12  C    0.169203
    13  C    0.155996
    14  C    0.140866
    15  C    0.145070
    16  C    0.163543
    17  F   -0.189055
    18  F   -0.172886
    19  F   -0.173421
    20  F   -0.174030
    21  F   -0.171543
    22  C    0.367369
    24  F   -0.188322
    25  F   -0.191718
 Electronic spatial extent (au):  <R**2>=           5166.9152
 Charge=             -0.0000 electrons
 Dipole moment (field-independent basis, Debye):
    X=             -5.7953    Y=              7.2069    Z=             -3.6382  Tot=              9.9379
 Quadrupole moment (field-independent basis, Debye-Ang):
   XX=            -92.7700   YY=           -101.2666   ZZ=           -104.4036
   XY=            -19.6584   XZ=              6.1046   YZ=              1.6633
 Traceless Quadrupole moment (field-independent basis, Debye-Ang):
   XX=              6.7101   YY=             -1.7865   ZZ=             -4.9235
   XY=            -19.6584   XZ=              6.1046   YZ=              1.6633
 Octapole moment (field-independent basis, Debye-Ang**2):
  XXX=            -91.5959  YYY=             23.7134  ZZZ=             -7.5320  XYY=            -37.4621
  XXY=             53.0153  XXZ=            -27.4070  XZZ=              0.6193  YZZ=             -0.1725
  YYZ=              2.6902  XYZ=             -2.2902
 Hexadecapole moment (field-independent basis, Debye-Ang**3):
 XXXX=          -4027.7621 YYYY=          -1366.4705 ZZZZ=           -292.8884 XXXY=           -150.1847
 XXXZ=             41.5195 YYYX=            -55.6897 YYYZ=             -1.5117 ZZZX=             36.7877
 ZZZY=             -8.0717 XXYY=           -863.4562 XXZZ=           -687.7661 YYZZ=           -266.9066
 XXYZ=             18.7733 YYXZ=             -1.3853 ZZXY=              2.2137
 N-N= 1.638424041988D+03 E-N=-6.232631692798D+03  KE= 1.245306022058D+03
 No NMR shielding tensors so no spin-rotation constants.
 Leave Link  601 at Thu Feb  6 13:00:34 2025, MaxMem=  8053063680 cpu:               2.9 elap:               0.3
 (Enter /opt/apps/g16_avx2/tar//g16/l701.exe)
 ... and contract with generalized density number  0.
 Compute integral first derivatives.
 R6Disp: Adding Grimme-D3 dispersion energy 1st derivatives to the gradient.
   1 Symmetry operations used in ECPInt.
 ECPInt:  NShTT=   27261 NPrTT=   87172 LenC2=   23594 LenP2D=   53391.
 LDataN:  DoStor=T MaxTD1= 7 Len=  274
 D1PCM: PCM CHGder 1st derivatives, ID1Alg=3 FixD1E=F DoIter=F DoCFld=F I1PDM=0.
 GePol: Maximum number of non-zero 1st derivatives   =     214
 Leave Link  701 at Thu Feb  6 13:00:36 2025, MaxMem=  8053063680 cpu:              22.7 elap:               1.5
 (Enter /opt/apps/g16_avx2/tar//g16/l702.exe)
 L702 exits ... SP integral derivatives will be done elsewhere.
 Leave Link  702 at Thu Feb  6 13:00:36 2025, MaxMem=  8053063680 cpu:               0.1 elap:               0.1
 (Enter /opt/apps/g16_avx2/tar//g16/l703.exe)
 Integral derivatives from FoFJK, PRISM(SPDF).
 Compute integral first derivatives, UseDBF=F ICtDFT=           0.
 Calling FoFJK, ICntrl=      2127 FMM=F ISym2X=0 I1Cent= 0 IOpClX= 0 NMat=1 NMatS=1 NMatT=0.
 FoFJK:  IHMeth= 1 ICntrl=    2127 DoSepK=F KAlg= 0 I1Cent=           0 FoldK=F
 IRaf=         0 NMat=       1 IRICut=       1 DoRegI=T DoRafI=F ISym2E= 0 IDoP0=0 IntGTp=1.
 FoFCou: FMM=F IPFlag=           0 FMFlag=      100000 FMFlg1=         800
         NFxFlg=           0 DoJE=F BraDBF=F KetDBF=F FulRan=T
         wScrn=  0.000000 ICntrl=      2127 IOpCl=  0 I1Cent=           0 NGrid=           0
         NMat0=    1 NMatS0=      1 NMatT0=    0 NMatD0=    1 NMtDS0=    0 NMtDT0=    0
 Symmetry not used in FoFCou.
 Leave Link  703 at Thu Feb  6 13:01:23 2025, MaxMem=  8053063680 cpu:             747.9 elap:              46.8
 (Enter /opt/apps/g16_avx2/tar//g16/l716.exe)
 Dipole        =-2.28004665D+00 2.83541508D+00-1.43138562D+00
 ***** Axes restored to original set *****
 -------------------------------------------------------------------
 Center     Atomic                   Forces (Hartrees/Bohr)
 Number     Number              X              Y              Z
 -------------------------------------------------------------------
      1        1           0.001995295   -0.001320824   -0.000472363
      2        8          -0.005728120   -0.006365221   -0.006788151
      3        6           0.018545604    0.015189115    0.015361354
      4        7          -0.004788442   -0.007649922   -0.002156556
      5        1          -0.000177980    0.001762631   -0.000889562
      6        6          -0.003607300    0.002439017    0.001198779
      7        1           0.000806185    0.002303616    0.001030751
      8        1          -0.000124980   -0.000148928   -0.000283120
      9        1           0.001270424    0.000424512   -0.000240789
     10        8          -0.011771791   -0.005823346    0.000238498
     11        6           0.003337008   -0.001161805    0.002261947
     12        6          -0.002005540    0.000933415    0.000092666
     13        6          -0.001107581   -0.002012535   -0.000529231
     14        6           0.000431105    0.000475271   -0.000085218
     15        6           0.000946268   -0.000223284    0.000373205
     16        6           0.000608081   -0.000223357    0.000159241
     17        9           0.000143182   -0.000623206    0.000064192
     18        9           0.001519412    0.001794858    0.000214292
     19        9          -0.000503616   -0.000729111   -0.000094186
     20        9          -0.000594069    0.000576204   -0.000245167
     21        9          -0.000889600   -0.000020096   -0.000280640
     22        6           0.013220451    0.008493451    0.001536684
     23        1          -0.007755627   -0.002866867   -0.016481514
     24        9          -0.004797006    0.002308618    0.003720015
     25        9           0.001028636   -0.007532205    0.002294873
 -------------------------------------------------------------------
 Cartesian Forces:  Max     0.018545604 RMS     0.005113216
 Leave Link  716 at Thu Feb  6 13:01:23 2025, MaxMem=  8053063680 cpu:               0.2 elap:               0.1
 (Enter /opt/apps/g16_avx2/tar//g16/l103.exe)

 GradGradGradGradGradGradGradGradGradGradGradGradGradGradGradGradGradGrad
 Berny optimization.
 FormGI is forming the generalized inverse of G from B-inverse, IUseBI=4.
 Internal  Forces:  Max     0.016922162 RMS     0.003170395
 Search for a local minimum.
 Step number   1 out of a maximum of  134
 All quantities printed in internal units (Hartrees-Bohrs-Radians)
 RMS Force = .31704D-02 SwitMx=.10000D-02 MixMth= 1
 Mixed Optimization -- RFO/linear search
 Second derivative matrix not updated -- first step.
 ITU=  0
     Eigenvalues ---    0.00230   0.00230   0.00237   0.00779   0.02203
     Eigenvalues ---    0.02244   0.02255   0.02271   0.02283   0.02295
     Eigenvalues ---    0.02300   0.02303   0.02308   0.02527   0.03506
     Eigenvalues ---    0.04638   0.04998   0.06037   0.06082   0.06238
     Eigenvalues ---    0.07530   0.07739   0.08523   0.10266   0.12363
     Eigenvalues ---    0.16000   0.16000   0.16000   0.16000   0.16786
     Eigenvalues ---    0.19439   0.20581   0.21938   0.23463   0.24168
     Eigenvalues ---    0.24989   0.24996   0.24999   0.24999   0.24999
     Eigenvalues ---    0.25000   0.25000   0.25000   0.25000   0.25000
     Eigenvalues ---    0.27762   0.28519   0.34964   0.34993   0.35112
     Eigenvalues ---    0.35859   0.37230   0.43572   0.43846   0.44730
     Eigenvalues ---    0.44797   0.47284   0.47705   0.48368   0.48532
     Eigenvalues ---    0.55021   0.55021   0.57919   0.58580   0.59782
     Eigenvalues ---    0.59791   0.59852   0.60147   0.87832
 RFO step:  Lambda=-8.35616513D-03 EMin= 2.30000000D-03
 Linear search not attempted -- first point.
 Iteration  1 RMS(Cart)=  0.11221599 RMS(Int)=  0.00367703
 Iteration  2 RMS(Cart)=  0.00576866 RMS(Int)=  0.00046321
 Iteration  3 RMS(Cart)=  0.00001142 RMS(Int)=  0.00046312
 Iteration  4 RMS(Cart)=  0.00000001 RMS(Int)=  0.00046312
 ITry= 1 IFail=0 DXMaxC= 4.55D-01 DCOld= 1.00D+10 DXMaxT= 3.00D-01 DXLimC= 3.00D+00 Rises=F
 Variable       Old X    -DE/DX   Delta X   Delta X   Delta X     New X
                                 (Linear)    (Quad)   (Total)
    R1        1.92290   0.00037   0.00000   0.00082   0.00082   1.92372
    R2        2.33948  -0.00820   0.00000  -0.00924  -0.00924   2.33024
    R3        3.11983   0.00063   0.00000   0.00293   0.00293   3.12276
    R4        2.92663  -0.00924   0.00000  -0.03231  -0.03231   2.89432
    R5        2.91018   0.00186   0.00000   0.00635   0.00635   2.91653
    R6        1.92212   0.00110   0.00000   0.00241   0.00241   1.92453
    R7        2.77602   0.00290   0.00000   0.00789   0.00789   2.78391
    R8        2.05494  -0.00231   0.00000  -0.00643  -0.00643   2.04851
    R9        2.05686  -0.00027   0.00000  -0.00075  -0.00075   2.05611
   R10        2.05733  -0.00001   0.00000  -0.00002  -0.00002   2.05732
   R11        2.52626   0.00225   0.00000   0.00383   0.00383   2.53009
   R12        2.63036  -0.00088   0.00000  -0.00190  -0.00190   2.62846
   R13        2.63185   0.00035   0.00000   0.00076   0.00076   2.63261
   R14        2.61362  -0.00031   0.00000  -0.00070  -0.00070   2.61292
   R15        2.52082  -0.00060   0.00000  -0.00101  -0.00101   2.51981
   R16        2.61392   0.00025   0.00000   0.00057   0.00058   2.61450
   R17        2.51106  -0.00224   0.00000  -0.00370  -0.00370   2.50736
   R18        2.61521  -0.00003   0.00000  -0.00009  -0.00009   2.61512
   R19        2.51058  -0.00087   0.00000  -0.00144  -0.00144   2.50914
   R20        2.61683  -0.00021   0.00000  -0.00038  -0.00038   2.61644
   R21        2.51113  -0.00084   0.00000  -0.00139  -0.00139   2.50974
   R22        2.50824  -0.00093   0.00000  -0.00152  -0.00152   2.50672
   R23        2.02201   0.01692   0.00000   0.04446   0.04446   2.06646
   R24        2.55113  -0.00432   0.00000  -0.00773  -0.00773   2.54340
   R25        2.55113   0.00100   0.00000   0.00179   0.00179   2.55292
    A1        1.92024   0.00179   0.00000   0.03583   0.03570   1.95594
    A2        2.02180   0.00456   0.00000   0.02308   0.02162   2.04342
    A3        2.12062  -0.00285   0.00000  -0.01647  -0.01771   2.10291
    A4        1.66495  -0.00035   0.00000  -0.00138  -0.00070   1.66425
    A5        1.86007   0.00371   0.00000   0.02516   0.02502   1.88508
    A6        1.81661  -0.00622   0.00000  -0.06230  -0.06263   1.75398
    A7        1.80219  -0.00550   0.00000  -0.04665  -0.04599   1.75621
    A8        1.86757   0.00129   0.00000  -0.01279  -0.01275   1.85482
    A9        1.92409  -0.00206   0.00000  -0.02205  -0.02115   1.90294
   A10        1.92801  -0.00195   0.00000   0.01394   0.01248   1.94048
   A11        1.98094   0.01048   0.00000   0.05180   0.05104   2.03198
   A12        1.95203  -0.00291   0.00000   0.00743   0.00585   1.95788
[...]
 83,-0.00372845,-0.00123710,0.00425932,0.00162608,-0.00410000,-0.002310
 09,-0.00281161,-0.17703521,0.28159612,-0.00044933,-0.00050136,-0.00065
 284,-0.00003176,0.00149286,0.00027648,0.00020997,0.00085258,-0.0003515
 3,-0.00027131,-0.00004927,0.00028788,0.00003723,-0.00005647,0.00004138
 ,-0.00008636,-0.00013451,-0.00004528,-0.00003506,0.00003125,0.00004808
 ,-0.00002633,0.00002554,0.00001858,0.00000758,0.00000480,0.00000698,0.
 00312615,0.00224675,-0.00386665,0.01037247,-0.01486507,0.00543077,0.00
 182063,-0.02249335,-0.04134812,-0.00433263,-0.00151766,0.00375591,-0.0
 0831051,0.00710383,0.00761329,0.00125983,0.00156966,-0.00208064,-0.001
 91674,-0.00369574,0.00265969,-0.00412170,0.02795577,0.03028916,-0.0000
 4543,0.00000537,-0.00000153,0.00004917,0.00007465,-0.00014668,-0.00023
 542,0.00010747,0.00053174,0.00005589,0.00009471,-0.00004980,-0.0000241
 8,-0.00000912,-0.00000216,-0.00001785,-0.00002201,0.00002270,0.0000048
 4,-0.00000243,-0.00000224,-0.00000064,0.00000356,-0.00000040,0.0000086
 9,-0.00000379,-0.00000824,0.00601387,0.00213397,0.00314237,0.00937324,
 0.02037810,0.00602664,-0.00718871,0.00061222,-0.00260726,-0.09815398,-
 0.07559456,-0.03668421,0.00279271,0.00028328,0.00142916,-0.01243810,-0
 .04978226,-0.01895993,-0.00401278,0.00778124,0.00049958,0.00109442,0.0
 0105593,0.00053951,0.10178131,-0.00056895,0.00018665,-0.00009946,0.000
 95221,0.00026533,-0.00114788,-0.00264042,0.00122215,0.00240816,0.00038
 942,-0.00010353,-0.00004954,-0.00007577,0.00002697,-0.00009616,-0.0001
 2644,-0.00001550,0.00029502,0.00003157,-0.00000671,-0.00003884,-0.0000
 2662,0.00004123,0.00000315,0.00007425,-0.00004843,-0.00005506,0.002650
 96,0.00446704,0.00206281,-0.02053970,-0.05207171,-0.02163357,0.0038902
 3,0.00574383,0.00170217,-0.07368141,-0.29784447,-0.09281909,-0.0001256
 1,0.00475144,0.00212058,-0.00700365,-0.03080723,-0.01285091,0.00492194
 ,0.00114225,0.00019519,0.00195803,-0.00540777,-0.00120232,0.09921959,0
 .36853482,-0.00015828,0.00002921,-0.00003647,-0.00034287,-0.00005738,-
 0.00073876,-0.00032691,0.00099695,0.00201687,0.00013280,-0.00002916,-0
 .00001727,-0.00000196,0.00000067,-0.00004512,-0.00004283,-0.00001590,0
 .00011148,0.00000529,0.00000267,-0.00001000,-0.00000985,0.00001713,0.0
 0000056,0.00002532,-0.00001677,-0.00002110,0.00408746,0.00351572,-0.00
 408778,-0.00753389,-0.01244608,0.00281407,-0.00177360,0.00009231,0.004
 96379,-0.03486999,-0.09337357,-0.07183854,0.00149506,0.00225985,-0.001
 86943,-0.00670607,-0.02290150,0.00031476,-0.00052423,0.00105918,0.0045
 7513,0.00076190,-0.00149897,0.00011708,0.04678702,0.12264135,0.0684519
 8,0.00019805,-0.00015043,0.00003407,-0.00048270,-0.00000736,0.00079998
 ,0.00183190,-0.00029240,-0.00176012,-0.00034873,0.00023026,0.00009023,
 0.00004678,-0.00002239,0.00004824,0.00004611,0.00003842,-0.00017366,-0
 .00001524,0.00000160,0.00001922,0.00001381,-0.00002409,-0.00000063,-0.
 00004754,0.00002905,0.00003620,-0.00323889,-0.00282523,-0.00054141,-0.
 00392753,0.00807335,0.00002751,-0.01060060,-0.04894924,-0.01870347,0.0
 0302142,0.00050415,0.00147134,-0.09858441,-0.07602162,-0.03717897,-0.0
 0777490,0.00011315,-0.00274319,0.00917276,0.01962010,0.00605856,0.0041
 0652,-0.00073301,0.00212689,-0.00073456,-0.00280448,-0.00122270,0.0988
 7514,0.00043687,-0.00021187,0.00009743,-0.00094930,-0.00007492,0.00135
 749,0.00311874,-0.00056977,-0.00286238,-0.00069077,0.00038191,0.000162
 69,0.00007067,-0.00003571,0.00009009,0.00009177,0.00006316,-0.00033136
 ,-0.00003021,0.00000483,0.00003822,0.00002708,-0.00004810,-0.00000169,
 -0.00008922,0.00005376,0.00006664,-0.00542478,-0.00119392,0.00001295,0
 .00499976,0.00197834,0.00022748,-0.00577262,-0.02857525,-0.01233075,0.
 00076297,0.00467960,0.00235007,-0.07600992,-0.29989776,-0.09532876,0.0
 0249750,0.00463679,0.00081512,-0.02424958,-0.05044874,-0.02264583,-0.0
 0315748,0.00937763,0.00355501,-0.00262302,-0.00822503,-0.00329484,0.10
 179840,0.36714916,0.00015658,-0.00009867,0.00002826,-0.00058988,-0.000
 13901,0.00054811,0.00126500,-0.00023466,-0.00104616,-0.00029570,0.0001
 8459,0.00004790,0.00002549,-0.00000751,0.00003794,0.00003793,0.0000276
 0,-0.00014223,-0.00001172,0.00000105,0.00001536,0.00001447,-0.00002241
 ,-0.00000157,-0.00003815,0.00002293,0.00002768,-0.00228769,-0.00101848
 ,0.00024467,-0.00066600,0.00112417,0.00476321,-0.00590425,-0.02193071,
 -0.00010748,0.00160136,0.00235658,-0.00181989,-0.03742747,-0.09513755,
 -0.07162741,-0.00195597,0.00025209,0.00393442,-0.00678627,-0.01282522,
 0.00270994,0.00153298,0.00387221,-0.00379246,-0.00117154,-0.00333885,-
 0.00026903,0.04789178,0.12487701,0.06942662,0.00045497,-0.00022239,0.0
 0011318,-0.00077342,-0.00012146,0.00139365,0.00299149,-0.00003176,-0.0
 0335152,-0.00087689,0.00040391,0.00031888,0.00007580,-0.00004264,0.000
 09266,0.00007663,0.00008788,-0.00036052,-0.00003579,0.00000753,0.00003
 947,0.00002841,-0.00004075,-0.00000017,-0.00009308,0.00005440,0.000079
 74,-0.00668528,0.00151247,0.00095521,0.00157308,-0.00773688,-0.0024875
 9,0.00415703,-0.00143297,0.00100559,-0.03548334,0.05234032,0.00516773,
 -0.00539914,-0.00305381,-0.00328353,-0.19191317,0.14323040,0.00584503,
 -0.00228948,0.00242486,-0.00178905,-0.00421989,0.00503308,0.00020089,0
 .00432279,-0.00286939,0.00129653,0.00127589,0.00192780,0.00068235,0.22
 365212,-0.00052159,0.00014950,-0.00012223,0.00080468,0.00017456,-0.001
 01917,-0.00235872,0.00031943,0.00217782,0.00060600,-0.00028140,-0.0001
 4905,-0.00004649,0.00003289,-0.00008570,-0.00008670,-0.00003728,0.0002
 9178,0.00003121,-0.00000710,-0.00003615,-0.00002684,0.00003441,0.00000
 281,0.00007190,-0.00004574,-0.00005891,0.00424539,0.00026119,-0.000383
 39,-0.00480589,-0.00156478,-0.00304377,-0.00197531,0.00358049,0.001642
 61,0.00904857,-0.01227398,-0.00401644,-0.00537423,0.00294280,-0.001466
 36,0.14335495,-0.23595800,-0.02629229,0.04613383,-0.04274107,-0.004296
 88,0.00519352,-0.00568183,-0.00064475,-0.00071374,0.00973516,0.0043915
 3,0.00082607,-0.00530256,-0.00160196,-0.19050556,0.28220032,-0.0000527
 8,-0.00001678,-0.00001506,0.00023680,0.00012040,0.00003362,-0.00016245
 ,0.00000249,-0.00029126,-0.00004147,0.00000876,0.00005981,0.00000652,-
 0.00000351,-0.00000392,-0.00000974,0.00001730,-0.00000369,0.00000177,-
 0.00000118,-0.00000186,-0.00000258,0.00000344,0.00000189,-0.00000240,0
 .00000067,0.00000481,-0.00034386,0.00045453,0.00047052,-0.00199939,-0.
 00389807,0.00328768,0.00082153,0.00159328,-0.00197914,-0.00719918,0.00
 634996,0.00822734,-0.00389647,-0.00094543,0.00308456,0.00583898,-0.026
 25928,-0.04148822,0.01141648,-0.01470556,0.00626070,0.00040605,-0.0007
 4503,0.00078586,0.00197484,0.00364560,-0.00394614,0.00037383,-0.001383
 83,0.00044004,-0.00946327,0.03299270,0.02924855,0.00059000,-0.00031158
 ,0.00010486,-0.00076712,0.00007661,0.00233020,0.00462073,-0.00174735,-
 0.00507314,-0.00090372,0.00042360,0.00025472,0.00012153,-0.00004719,0.
 00013572,0.00013945,0.00008769,-0.00048597,-0.00004198,0.00000382,0.00
 005481,0.00003812,-0.00006714,0.00000025,-0.00012828,0.00007795,0.0000
 9894,-0.01141342,-0.00002391,-0.00068201,0.00513693,-0.00000099,0.0020
 3309,0.00496143,0.00065334,-0.00033561,0.00220442,0.00365047,0.0011112
 8,-0.05250609,-0.01317322,-0.01796984,-0.03934172,-0.00042535,-0.01099
 706,-0.33723248,-0.03456711,-0.08046463,-0.00491287,0.00286452,-0.0005
 6268,-0.00225365,-0.00373897,-0.00176462,0.00736317,0.00361766,0.00410
 505,0.00940243,-0.00416030,0.00209973,0.41561010,-0.00001943,-0.000069
 44,-0.00001924,-0.00017074,0.00005215,0.00026303,0.00064474,-0.0002611
 9,-0.00057788,-0.00011862,0.00006648,0.00005845,0.00002539,-0.00000157
 ,0.00001007,0.00001111,0.00002443,-0.00005833,-0.00000247,-0.00000131,
 0.00000402,0.00000435,-0.00000974,0.00000050,-0.00001827,0.00000963,0.
 00001394,-0.00146710,0.00023290,-0.00028721,-0.00003612,0.00242391,0.0
 0154469,-0.00207079,-0.00703993,-0.00386870,0.00629585,-0.00543162,-0.
 00137166,0.03033685,0.00821963,0.00703243,-0.04385115,-0.00053296,-0.0
 1264948,-0.03446032,-0.07606770,-0.02040891,0.00202898,0.00039353,0.00
 039722,-0.00272993,-0.00117367,-0.00118176,0.00044844,0.00603221,0.003
 54646,-0.00113945,0.00463167,0.00276890,0.04636173,0.06844497,0.000097
 42,-0.00010168,0.00002038,0.00001130,0.00007119,0.00075990,0.00118860,
 -0.00065367,-0.00180296,-0.00023506,0.00015447,0.00004450,0.00002659,-
 0.00000912,0.00003998,0.00003550,0.00002781,-0.00013288,-0.00000938,-0
 .00000045,0.00001314,0.00001111,-0.00001868,0.00000033,-0.00003506,0.0
 0002021,0.00002715,-0.00361930,-0.00028249,0.00096173,0.00213518,0.001
 75275,-0.00186241,-0.00070475,-0.00315063,0.00291619,0.00192666,-0.001
 95390,0.00424233,-0.00512914,-0.00288804,0.00610542,-0.02441638,-0.002
 77400,0.00174327,-0.08037703,-0.02041540,-0.05943879,-0.00064882,0.000
 66278,0.00076476,-0.00160420,-0.00139708,-0.00011361,0.00308830,0.0041
 2885,-0.00357471,0.00324935,0.00199771,-0.00419320,0.10527624,0.024688
 04,0.05322360,-0.00309452,0.00284783,-0.00087707,-0.00491209,-0.008741
 65,-0.01361463,-0.07938530,-0.05556161,-0.02949352,0.00681967,0.023811
 78,-0.00052555,0.00160902,0.00068702,0.00020708,0.00230800,0.00144997,
 -0.00184150,-0.00186614,0.00139048,0.00064192,-0.00025742,-0.00009357,
 0.00012529,-0.00167874,-0.00036018,0.00087393,-0.02902131,-0.01405564,
 0.01387879,-0.00250751,-0.00239345,0.00179973,0.00021687,-0.00005743,-
 0.00053742,-0.00094754,-0.00049546,-0.00019980,-0.00032835,-0.00039211
 ,-0.00025638,-0.00018179,0.00048545,-0.00000363,-0.00044333,-0.0002624
 6,-0.00003688,0.00012460,0.00005677,0.00030963,0.00099849,0.00045657,0
 .00003381,0.00024913,0.00050938,0.00018541,0.00044813,-0.00038292,-0.0
 0001569,0.00058444,0.00011614,0.00011063,0.46316916,0.00005608,-0.0009
 7684,0.00034536,-0.00091386,0.00433001,-0.00730441,-0.06334106,-0.1381
 1171,-0.02997124,0.00100783,-0.02503899,0.00359967,0.00029214,-0.00235
 679,0.00170906,0.00028997,-0.00087731,-0.00111382,0.00065102,-0.000213
 14,-0.00015750,-0.00007116,-0.00025246,-0.00015921,-0.00008307,0.00037
 472,0.00005426,0.00734114,0.00150433,0.00186522,-0.00360679,0.00120760
 ,-0.00427461,0.00172833,-0.00120561,0.00070262,0.00171236,0.00293061,0
 .00088345,-0.00070708,-0.00102270,-0.00023460,-0.00086059,0.00066185,0
 .00013528,-0.00098952,-0.00009331,-0.00039168,-0.00041420,0.00101690,-
 0.00029665,-0.00114889,-0.00204240,-0.00051275,0.00053336,0.00090932,0
 .00040544,0.00083564,-0.00077880,-0.00002400,0.00168858,0.00018922,0.0
 0051135,0.02083764,0.50098654,-0.00078998,0.00136463,-0.00071111,-0.03
 262039,-0.03389470,-0.03705305,-0.01436053,-0.00673594,-0.07323863,0.0
 0237918,0.00723198,0.00609419,0.00003272,0.00231317,0.00060593,-0.0013
 0962,0.00078888,-0.00016819,0.00083639,-0.00081357,-0.00009474,-0.0001
 4234,-0.00006435,-0.00026091,0.00009489,0.00033925,0.00008528,0.020910
 70,0.00919698,-0.00220740,0.00252657,0.00154235,-0.00270664,0.00086898
 ,-0.00028475,-0.00017089,0.00003203,0.00025390,0.00006560,-0.00016955,
 -0.00010709,0.00020796,-0.00003091,0.00012526,0.00014161,-0.00001052,-
 0.00006556,-0.00011501,-0.00038308,0.00012290,0.00007231,-0.00000031,-
 0.00008774,-0.00029090,0.00002732,0.00002620,-0.00000717,-0.00002670,0
 .00000129,0.00001750,0.00018212,0.00002203,0.00009868,0.03995523,-0.01
 622421,0.65653902,0.00008230,-0.00004057,0.00009948,-0.00308552,-0.003
 64150,-0.00254147,0.00262462,0.00216031,-0.01409916,0.00028202,-0.0008
 6857,0.00094120,0.00033100,-0.00057451,0.00054074,-0.00012946,0.000065
 25,0.00008887,0.00009786,-0.00007329,0.00001693,-0.00005970,0.00005193
 ,0.00001093,0.00008347,0.00002435,-0.00002192,-0.00046996,-0.00025904,
 0.00001087,0.00031068,0.00018975,0.00022659,0.00021367,-0.00002867,-0.
 00005198,0.00004163,-0.00001699,-0.00001779,0.00000459,0.00005660,0.00
 003060,0.00001633,-0.00002156,-0.00001621,0.00002193,0.00000061,0.0000
 0200,-0.00006738,-0.00001157,0.00005017,0.00000323,-0.00000475,0.00002
 238,0.00000401,-0.00001497,-0.00000627,-0.00001672,0.00002360,0.000004
 65,-0.00002884,-0.00000189,-0.00000734,-0.06356857,-0.01302184,-0.0674
 2957,0.07744682,0.00001309,0.00023586,0.00014146,-0.00487212,-0.005914
 58,-0.00392665,-0.00261934,0.00756867,-0.02290099,0.00071743,-0.000005
 77,0.00077934,0.00027772,-0.00177208,0.00022995,0.00002116,0.00003529,
 0.00012605,0.00001832,-0.00003325,-0.00004522,-0.00014057,0.00011622,0
 .00004566,0.00001345,0.00000836,0.00001596,-0.00074740,-0.00018965,0.0
 0125620,0.00048027,0.00031829,0.00041805,0.00027375,0.00002095,-0.0001
 5273,-0.00009239,-0.00013481,-0.00004600,-0.00000125,0.00009889,0.0000
 4392,0.00006457,-0.00002460,-0.00002417,0.00003986,-0.00002377,0.00001
 939,-0.00004011,-0.00006359,0.00009560,0.00008119,0.00009513,0.0000191
 1,0.00000266,-0.00002563,-0.00001418,-0.00003080,0.00003575,0.00000808
 ,-0.00006896,-0.00000390,-0.00002340,-0.01567498,-0.06059048,-0.036660
 15,0.00160761,0.06420010,0.00002443,-0.00007053,0.00013694,-0.00046753
 ,-0.00122359,0.00049125,0.00018177,0.00280322,-0.00513620,0.00023188,-
 0.00053148,0.00030396,0.00043250,-0.00059052,-0.00004596,0.00027398,-0
 .00008884,-0.00005856,-0.00007527,0.00006734,-0.00000051,-0.00005358,0
 .00005586,0.00006886,-0.00002116,-0.00002360,0.00000085,0.00042607,0.0
 0038225,0.00132057,-0.00048222,0.00010075,0.00020214,0.00010902,0.0000
 4516,0.00001581,0.00006551,-0.00001363,-0.00000712,0.00001349,0.000027
 37,-0.00000226,-0.00001127,-0.00001673,-0.00002596,-0.00000731,0.00001
 158,0.00001290,-0.00001360,-0.00001052,0.00002764,-0.00001165,-0.00002
 098,0.00002152,0.00001031,0.00000621,-0.00000389,0.00000626,-0.0000026
 1,0.00000461,0.00000668,0.00000176,-0.00000369,-0.06310078,-0.02603816
 ,-0.29610229,0.05999870,0.02049653,0.32434549,0.00004744,-0.00011423,0
 .00003059,0.00275178,-0.00141690,0.00241890,0.00211525,-0.00308983,0.0
 0209665,0.00002122,-0.00172875,-0.00012714,-0.00000394,-0.00065279,0.0
 0010559,-0.00026070,-0.00009100,0.00003467,0.00041608,-0.00033303,-0.0
 0010205,0.00000552,0.00004167,0.00003332,0.00021559,0.00013771,-0.0000
 3474,0.00270360,-0.00195318,-0.00073787,0.00053384,0.00063976,-0.00043
 587,0.00001269,0.00009465,0.00013429,0.00069716,0.00122293,0.00033889,
 0.00000028,0.00007277,0.00002824,0.00007614,-0.00015966,-0.00003838,0.
 00008720,0.00002367,0.00001395,0.00004341,-0.00007946,-0.00005693,-0.0
 0118841,-0.00088201,0.00022536,-0.00005213,-0.00014132,-0.00004912,-0.
 00008540,0.00007478,0.00000154,-0.00008138,-0.00003369,-0.00002149,-0.
 10304529,0.07847924,-0.04352121,-0.00628582,0.02106111,-0.00922400,0.1
 5661532,0.00256156,-0.00152621,0.00025991,-0.00324824,0.00320621,-0.00
 140659,0.03220520,-0.03865554,0.01856796,-0.00571536,-0.00941774,-0.00
 174144,-0.00061872,0.00155718,-0.00102415,-0.00066205,-0.00059406,0.00
 167377,-0.00021097,0.00030018,-0.00012903,0.00016885,0.00005411,-0.000
 07041,0.00053524,-0.00029385,-0.00050977,-0.00382091,-0.00022196,-0.00
 092190,0.00139915,0.00008669,0.00118022,-0.00017844,0.00014238,-0.0001
 9853,-0.00074597,-0.00131492,-0.00037186,0.00020674,0.00036148,0.00013
 590,0.00029796,-0.00013886,-0.00002137,0.00033793,0.00000856,0.0001085
 0,-0.00017527,-0.00014832,0.00002174,0.00056701,0.00093271,0.00007077,
 -0.00017601,-0.00030003,-0.00013915,-0.00031895,0.00028409,0.00001502,
 -0.00053587,-0.00005109,-0.00015142,0.06450123,-0.21135375,0.06526964,
 0.01127557,-0.01082813,0.00780854,-0.13640397,0.27342485,-0.00021453,0
 .00007034,0.00022590,0.00333734,-0.00098988,0.00508043,-0.00334572,-0.
 00488855,0.00125774,0.00038517,0.00028901,0.00023941,0.00029949,-0.001
 08994,0.00024314,0.00032750,-0.00002356,-0.00029747,-0.00003164,-0.000
 03507,-0.00000357,-0.00003687,0.00005400,0.00007627,-0.00006904,0.0000
 1536,0.00007998,0.00022682,0.00144013,0.00050583,-0.00065917,-0.000084
 84,-0.00016541,0.00015073,-0.00007464,0.00005313,0.00010166,0.,0.00000
 416,-0.00004471,-0.00007923,-0.00003575,-0.00006541,0.00008713,0.00000
 120,-0.00009565,-0.00000714,-0.00003092,-0.00002339,0.00007911,-0.0000
 0508,0.00020072,-0.00005901,0.00001786,0.00005703,0.00009966,0.0000455
 1,0.00008911,-0.00008008,-0.00000409,0.00014988,0.00002165,0.00004306,
 -0.03366118,0.06076871,-0.10430354,-0.02131396,0.03709066,-0.00548224,
 0.04255459,-0.07492932,0.08575564,0.00014567,0.00020527,-0.00008606,0.
 00262580,-0.00197494,-0.00325999,-0.02890371,0.00665869,0.02607416,0.0
 0129175,-0.00263365,-0.00052133,-0.00037641,0.00012034,0.00001301,-0.0
 0115601,-0.00029363,0.00089005,0.00122184,-0.00017886,-0.00022257,0.00
 000784,0.00016886,-0.00004297,0.00081084,0.00022070,-0.00039364,-0.011
 86603,-0.00556179,-0.00043827,0.00371056,-0.00129911,0.00296771,-0.001
 41555,0.00100006,-0.00037215,-0.00041187,-0.00073289,-0.00032716,0.000
 41636,0.00066347,0.00014745,0.00062432,-0.00057170,-0.00007305,0.00072
 451,0.00006118,0.00025350,0.00049664,-0.00073016,0.00014042,-0.0002049
 4,0.00054339,0.00040488,-0.00039747,-0.00070542,-0.00030838,-0.0005871
 5,0.00054378,0.00000655,-0.00116121,-0.00015363,-0.00034894,-0.1852896
 3,-0.03029527,0.09294858,-0.00785220,-0.00038426,0.01168774,-0.0553394
 8,0.03875429,0.01168119,0.28288556,-0.00002682,0.00051732,-0.00018395,
 0.00075029,-0.00015149,-0.00008753,-0.01960707,0.00679716,0.01781481,0
 .00146750,0.00177172,-0.00158014,-0.00002189,-0.00007958,-0.00033933,0
 .00210009,-0.00234407,0.00040220,-0.00114827,-0.00329546,0.00015512,-0
 .00006109,0.00005400,0.00002934,-0.00068716,-0.00065990,-0.00003560,-0
 .00948869,-0.00340966,0.00007737,0.00151549,-0.00102296,0.00206465,-0.
 00084023,0.00055203,-0.00020950,-0.00047849,-0.00084240,-0.00029297,0.
 00024103,0.00035765,0.00003754,0.00033176,-0.00027167,-0.00005062,0.00
 038493,0.00002743,0.00015213,0.00024736,-0.00039884,0.00010454,0.00023
 147,0.00060173,0.00023219,-0.00021275,-0.00035742,-0.00016179,-0.00031
 148,0.00029027,0.00000155,-0.00063805,-0.00007663,-0.00019519,-0.01867
 882,-0.06919681,0.00633962,0.00312414,0.00687675,-0.00317539,0.0452315
 2,-0.00551401,-0.01767450,-0.00342474,0.06977483,-0.00011696,-0.000089
 28,0.00006418,-0.00028444,0.00210273,0.00586438,0.00287341,-0.00677322
 ,-0.00282573,-0.00035722,0.00106510,-0.00028585,0.00024253,-0.00046252
 ,-0.00015676,0.00107979,-0.00026117,-0.00013326,-0.00074661,0.00039357
 ,-0.00005781,0.00002496,0.00012225,0.00007205,-0.00044358,-0.00020126,
 0.00024365,0.00362840,0.00164872,0.00137185,-0.00172445,0.00065426,-0.
 00069117,0.00057887,-0.00039206,0.00018203,0.00015690,0.00018902,0.000
 14001,-0.00011832,-0.00019006,-0.00005885,-0.00024858,0.00015921,-0.00
 001718,-0.00026714,0.00001993,-0.00008316,-0.00017107,0.00026414,-0.00
 005326,0.00009584,-0.00017753,-0.00012095,0.00016334,0.00026834,0.0001
 2235,0.00022672,-0.00019853,-0.00000091,0.00039197,0.00004996,0.000117
 84,0.08604260,0.01572244,-0.14649762,0.04346156,0.00300752,-0.02008387
 ,0.00633220,-0.01349702,0.01669882,-0.14082071,-0.00342454,0.14618922\
 \0.00000375,0.00000303,-0.00000348,-0.00001084,0.00000697,0.00000735,0
 .00001369,-0.00001261,-0.00000512,-0.00000371,-0.00000725,-0.00000934,
 -0.00000177,0.00000598,-0.00000764,-0.00000945,0.00001034,0.00001445,-
 0.00000052,0.00000393,-0.00001090,-0.00000042,-0.00000361,0.00000006,0
 .00000239,0.00000156,-0.00000162,0.00000778,-0.00000219,-0.00001143,-0
 .00000140,0.00001388,0.00000524,0.00001163,-0.00002470,-0.00000099,0.0
 0000573,-0.00000089,0.00000438,0.00000243,0.00000535,0.00000785,-0.000
 00033,-0.00001080,-0.00000022,-0.00000518,0.00000120,0.00000396,-0.000
 00596,0.00001555,0.00000132,-0.00000119,-0.00000040,-0.00000185,-0.000
 00021,-0.00000494,0.00000297,-0.00000221,0.00000184,0.00000453,0.00000
 202,-0.00000223,0.00000601,0.00003087,-0.00001192,0.00002095,-0.000006
 17,-0.00000576,-0.00000906,-0.00002253,0.00002172,-0.00001195,-0.00000
 842,-0.00000404,-0.00000546\\\@


 Just remember, when you're over the hill, you begin to pick up speed.
 -- Charles Schulz
 Job cpu time:       0 days  7 hours  9 minutes 48.4 seconds.
 Elapsed time:       0 days  0 hours 26 minutes 54.8 seconds.
 File lengths (MBytes):  RWF=   1034 Int=      0 D2E=      0 Chk=     40 Scr=      1
 Normal termination of Gaussian 16 at Thu Feb  6 14:27:55 2025.
