 Entering Gaussian System, Link 0=g16
 Input=input.com
 Output=input.log
 Initial command:
 /share/apps/g16.b01_avx2/g16/l1.exe "/scratch/Gau-2009532.inp" -scrdir="/scratch/"
 Entering Link 1 = /share/apps/g16.b01_avx2/g16/l1.exe PID=   2009534.
  
 Copyright (c) 1988-2017, Gaussian, Inc.  All Rights Reserved.
  
 This is part of the Gaussian(R) 16 program.  It is based on
 the Gaussian(R) 09 system (copyright 2009, Gaussian, Inc.),
 the Gaussian(R) 03 system (copyright 2003, Gaussian, Inc.),
 the Gaussian(R) 98 system (copyright 1998, Gaussian, Inc.),
 the Gaussian(R) 94 system (copyright 1995, Gaussian, Inc.),
 the Gaussian 92(TM) system (copyright 1992, Gaussian, Inc.),
 the Gaussian 90(TM) system (copyright 1990, Gaussian, Inc.),
 the Gaussian 88(TM) system (copyright 1988, Gaussian, Inc.),
 the Gaussian 86(TM) system (copyright 1986, Carnegie Mellon
 University), and the Gaussian 82(TM) system (copyright 1983,
 Carnegie Mellon University). Gaussian is a federally registered
 trademark of Gaussian, Inc.
  
 This software contains proprietary and confidential information,
 including trade secrets, belonging to Gaussian, Inc.
  
 This software is provided under written license and may be
 used, copied, transmitted, or stored only in accord with that
 written license.
  
 The following legend is applicable only to US Government
 contracts under FAR:
  
                    RESTRICTED RIGHTS LEGEND
  
 Use, reproduction and disclosure by the US Government is
 subject to restrictions as set forth in subparagraphs (a)
 and (c) of the Commercial Computer Software - Restricted
 Rights clause in FAR 52.227-19.
  
 Gaussian, Inc.
 340 Quinnipiac St., Bldg. 40, Wallingford CT 06492
  
  
 ---------------------------------------------------------------
 Warning -- This program may not be used in any manner that
 competes with the business of Gaussian, Inc. or will provide
 assistance to any competitor of Gaussian, Inc.  The licensee
 of this program is prohibited from giving any competitor of
 Gaussian, Inc. access to this program.  By using this program,
 the user acknowledges that Gaussian, Inc. is engaged in the
 business of creating and licensing software in the field of
 computational chemistry and represents and warrants to the
 licensee that it is not a competitor of Gaussian, Inc. and that
 it will not use this program in any manner prohibited above.
 ---------------------------------------------------------------
  

 Cite this work as:
 Gaussian 16, Revision B.01,
 M. J. Frisch, G. W. Trucks, H. B. Schlegel, G. E. Scuseria, 
 M. A. Robb, J. R. Cheeseman, G. Scalmani, V. Barone, 
 G. A. Petersson, H. Nakatsuji, X. Li, M. Caricato, A. V. Marenich, 
 J. Bloino, B. G. Janesko, R. Gomperts, B. Mennucci, H. P. Hratchian, 
 J. V. Ortiz, A. F. Izmaylov, J. L. Sonnenberg, D. Williams-Young, 
 F. Ding, F. Lipparini, F. Egidi, J. Goings, B. Peng, A. Petrone, 
 T. Henderson, D. Ranasinghe, V. G. Zakrzewski, J. Gao, N. Rega, 
 G. Zheng, W. Liang, M. Hada, M. Ehara, K. Toyota, R. Fukuda, 
 J. Hasegawa, M. Ishida, T. Nakajima, Y. Honda, O. Kitao, H. Nakai, 
 T. Vreven, K. Throssell, J. A. Montgomery, Jr., J. E. Peralta, 
 F. Ogliaro, M. J. Bearpark, J. J. Heyd, E. N. Brothers, K. N. Kudin, 
 V. N. Staroverov, T. A. Keith, R. Kobayashi, J. Normand, 
 K. Raghavachari, A. P. Rendell, J. C. Burant, S. S. Iyengar, 
 J. Tomasi, M. Cossi, J. M. Millam, M. Klene, C. Adamo, R. Cammi, 
 J. W. Ochterski, R. L. Martin, K. Morokuma, O. Farkas, 
 J. B. Foresman, and D. J. Fox, Gaussian, Inc., Wallingford CT, 2016.
 
 ******************************************
 Gaussian 16:  ES64L-G16RevB.01 20-Dec-2017
                29-Aug-2024 
 ******************************************
 %nproc=24
 Will use up to   24 processors via shared memory.
 %mem=64GB
 ----------------------------------------------------------------------
 #P PBE1PBE/def2TZVP opt freq EmpiricalDispersion=GD3 Int=(grid=99590) 
 scrf=(iefpcm, solvent=water)
 ----------------------------------------------------------------------
 1/18=20,19=15,26=6,38=1/1,3;
 2/9=110,12=2,17=6,18=5,40=1/2;
 3/5=44,7=101,11=2,25=1,30=1,70=2201,71=1,72=1,74=-13,75=99590,124=31/1,2,3;
 4//1;
 5/5=2,38=5,53=1/2;
 6/7=2,8=2,9=2,10=2,28=1/1;
 7//1,2,3,16;
 1/18=20,19=15,26=6/3(2);
 2/9=110/2;
 99//99;
 2/9=110/2;
 3/5=44,7=101,11=2,25=1,30=1,70=2205,71=1,72=1,74=-13,75=99590,124=31/1,2,3;
 4/5=5,16=3,69=1/1;
 5/5=2,38=5,53=1/2;
 7//1,2,3,16;
 1/18=20,19=15,26=6/3(-5);
 2/9=110/2;
 6/7=2,8=2,9=2,10=2,19=2,28=1/1;
 99/9=1/99;
 Leave Link    1 at Thu Aug 29 20:28:27 2024, MaxMem=  8589934592 cpu:               0.8 elap:               0.0
 (Enter /share/apps/g16.b01_avx2/g16/l101.exe)
 ----------------------------
 ch2F-methylacetamide product
 ----------------------------
 Symbolic Z-matrix:
 Charge =  0 Multiplicity = 1
 C                     0.64172   0.80342   0.17601 
 O                     0.03378  -0.29782   0.14071 
 N                     2.07657   0.84102   0.49332 
 H                     2.49971   1.62069   0.03173 
 C                    -0.11747   2.11169  -0.11322 
 C                     2.71227  -0.40309   0.0362 
 H                     2.58335  -0.5018   -1.02141 
 H                     3.75669  -0.37571   0.26717 
 H                     2.25951  -1.23734   0.5301 
 F                    -0.06274   2.38095  -1.43496 
 H                     0.33312   2.91379   0.43314 
 H                    -1.13893   2.00517   0.18708 
 
 ITRead=  0  0  0  0  0  0  0  0  0  0  0  0
 MicOpt= -1 -1 -1 -1 -1 -1 -1 -1 -1 -1 -1 -1
 NAtoms=     12 NQM=       12 NQMF=       0 NMMI=      0 NMMIF=      0
                NMic=       0 NMicF=      0.
                    Isotopes and Nuclear Properties:
 (Nuclear quadrupole moments (NQMom) in fm**2, nuclear magnetic moments (NMagM)
  in nuclear magnetons)

  Atom         1           2           3           4           5           6           7           8           9          10
 IAtWgt=          12          16          14           1          12          12           1           1           1          19
 AtmWgt=  12.0000000  15.9949146  14.0030740   1.0078250  12.0000000  12.0000000   1.0078250   1.0078250   1.0078250  18.9984032
 NucSpn=           0           0           2           1           0           0           1           1           1           1
 AtZEff=  -0.0000000  -0.0000000  -0.0000000  -0.0000000  -0.0000000  -0.0000000  -0.0000000  -0.0000000  -0.0000000  -0.0000000
 NQMom=    0.0000000   0.0000000   2.0440000   0.0000000   0.0000000   0.0000000   0.0000000   0.0000000   0.0000000   0.0000000
 NMagM=    0.0000000   0.0000000   0.4037610   2.7928460   0.0000000   0.0000000   2.7928460   2.7928460   2.7928460   2.6288670
 AtZNuc=   6.0000000   8.0000000   7.0000000   1.0000000   6.0000000   6.0000000   1.0000000   1.0000000   1.0000000   9.0000000

  Atom        11          12
 IAtWgt=           1           1
 AtmWgt=   1.0078250   1.0078250
 NucSpn=           1           1
 AtZEff=  -0.0000000  -0.0000000
 NQMom=    0.0000000   0.0000000
 NMagM=    2.7928460   2.7928460
 AtZNuc=   1.0000000   1.0000000
 Leave Link  101 at Thu Aug 29 20:28:27 2024, MaxMem=  8589934592 cpu:               6.9 elap:               0.3
 (Enter /share/apps/g16.b01_avx2/g16/l103.exe)

 GradGradGradGradGradGradGradGradGradGradGradGradGradGradGradGradGradGrad
 Berny optimization.
 Initialization pass.
                           ----------------------------
                           !    Initial Parameters    !
                           ! (Angstroms and Degrees)  !
 --------------------------                            --------------------------
 ! Name  Definition              Value          Derivative Info.                !
 --------------------------------------------------------------------------------
 ! R1    R(1,2)                  1.2584         estimate D2E/DX2                !
 ! R2    R(1,3)                  1.47           estimate D2E/DX2                !
 ! R3    R(1,5)                  1.54           estimate D2E/DX2                !
 ! R4    R(3,4)                  1.0            estimate D2E/DX2                !
 ! R5    R(3,6)                  1.47           estimate D2E/DX2                !
 ! R6    R(5,10)                 1.35           estimate D2E/DX2                !
 ! R7    R(5,11)                 1.07           estimate D2E/DX2                !
 ! R8    R(5,12)                 1.07           estimate D2E/DX2                !
 ! R9    R(6,7)                  1.07           estimate D2E/DX2                !
 ! R10   R(6,8)                  1.07           estimate D2E/DX2                !
 ! R11   R(6,9)                  1.07           estimate D2E/DX2                !
 ! A1    A(2,1,3)              120.0            estimate D2E/DX2                !
 ! A2    A(2,1,5)              120.0            estimate D2E/DX2                !
 ! A3    A(3,1,5)              120.0            estimate D2E/DX2                !
 ! A4    A(1,3,4)              109.4712         estimate D2E/DX2                !
 ! A5    A(1,3,6)              109.4712         estimate D2E/DX2                !
 ! A6    A(4,3,6)              109.4712         estimate D2E/DX2                !
 ! A7    A(1,5,10)             109.4712         estimate D2E/DX2                !
 ! A8    A(1,5,11)             109.4712         estimate D2E/DX2                !
 ! A9    A(1,5,12)             109.4712         estimate D2E/DX2                !
 ! A10   A(10,5,11)            109.4712         estimate D2E/DX2                !
 ! A11   A(10,5,12)            109.4712         estimate D2E/DX2                !
 ! A12   A(11,5,12)            109.4712         estimate D2E/DX2                !
 ! A13   A(3,6,7)              109.4712         estimate D2E/DX2                !
 ! A14   A(3,6,8)              109.4712         estimate D2E/DX2                !
 ! A15   A(3,6,9)              109.4712         estimate D2E/DX2                !
 ! A16   A(7,6,8)              109.4712         estimate D2E/DX2                !
 ! A17   A(7,6,9)              109.4712         estimate D2E/DX2                !
 ! A18   A(8,6,9)              109.4712         estimate D2E/DX2                !
 ! D1    D(2,1,3,4)            150.0            estimate D2E/DX2                !
 ! D2    D(2,1,3,6)             30.0            estimate D2E/DX2                !
 ! D3    D(5,1,3,4)            -30.0            estimate D2E/DX2                !
 ! D4    D(5,1,3,6)           -150.0            estimate D2E/DX2                !
 ! D5    D(2,1,5,10)           -90.0            estimate D2E/DX2                !
 ! D6    D(2,1,5,11)           150.0            estimate D2E/DX2                !
 ! D7    D(2,1,5,12)            30.0            estimate D2E/DX2                !
 ! D8    D(3,1,5,10)            90.0            estimate D2E/DX2                !
 ! D9    D(3,1,5,11)           -30.0            estimate D2E/DX2                !
 ! D10   D(3,1,5,12)          -150.0            estimate D2E/DX2                !
 ! D11   D(1,3,6,7)             60.0            estimate D2E/DX2                !
 ! D12   D(1,3,6,8)            180.0            estimate D2E/DX2                !
 ! D13   D(1,3,6,9)            -60.0            estimate D2E/DX2                !
 ! D14   D(4,3,6,7)            -60.0            estimate D2E/DX2                !
 ! D15   D(4,3,6,8)             60.0            estimate D2E/DX2                !
 ! D16   D(4,3,6,9)            180.0            estimate D2E/DX2                !
 --------------------------------------------------------------------------------
 Trust Radius=3.00D-01 FncErr=5.00D-06 GrdErr=5.00D-06 EigMax=2.50D+02 EigMin=1.00D-04
 Number of steps in this run=     55 maximum allowed number of steps=    100.
 GradGradGradGradGradGradGradGradGradGradGradGradGradGradGradGradGradGrad

 Leave Link  103 at Thu Aug 29 20:28:27 2024, MaxMem=  8589934592 cpu:               0.1 elap:               0.0
 (Enter /share/apps/g16.b01_avx2/g16/l202.exe)
                          Input orientation:                          
 ---------------------------------------------------------------------
 Center     Atomic      Atomic             Coordinates (Angstroms)
 Number     Number       Type             X           Y           Z
 ---------------------------------------------------------------------
      1          6           0        0.641720    0.803417    0.176008
      2          8           0        0.033777   -0.297823    0.140708
      3          7           0        2.076571    0.841025    0.493323
      4          1           0        2.499714    1.620695    0.031733
      5          6           0       -0.117471    2.111690   -0.113218
      6          6           0        2.712275   -0.403089    0.036199
      7          1           0        2.583346   -0.501795   -1.021409
      8          1           0        3.756690   -0.375714    0.267170
      9          1           0        2.259511   -1.237335    0.530100
     10          9           0       -0.062739    2.380953   -1.434960
     11          1           0        0.333117    2.913792    0.433136
     12          1           0       -1.138929    2.005166    0.187076
 ---------------------------------------------------------------------
                    Distance matrix (angstroms):
                    1          2          3          4          5
     1  C    0.000000
     2  O    1.258400   0.000000
     3  N    1.470000   2.365231   0.000000
     4  H    2.034920   3.126249   1.000000   0.000000
     5  C    1.540000   2.427572   2.606971   2.666785   0.000000
     6  C    2.400500   2.682602   1.470000   2.034920   3.788654
     7  H    2.628174   2.809346   2.086720   2.370879   3.866462
     8  H    3.331921   3.725875   2.086720   2.370879   4.619632
     9  H    2.628174   2.447081   2.086720   2.911082   4.156906
    10  F    2.362224   3.109323   3.265930   3.048827   1.350000
    11  H    2.148263   3.238764   2.709173   2.554871   1.070000
    12  H    2.148263   2.584792   3.433431   3.662195   1.070000
                    6          7          8          9         10
     6  C    0.000000
     7  H    1.070000   0.000000
     8  H    1.070000   1.747303   0.000000
     9  H    1.070000   1.747303   1.747303   0.000000
    10  F    4.197130   3.934848   5.008443   4.727189   0.000000
    11  H    4.101176   4.341137   4.750710   4.577363   1.982524
    12  H    4.544692   4.647647   5.444455   4.709658   1.982524
                   11         12
    11  H    0.000000
    12  H    1.747303   0.000000
 Stoichiometry    C3H6FNO
 Framework group  C1[X(C3H6FNO)]
 Deg. of freedom    30
 Full point group                 C1      NOp   1
 Largest Abelian subgroup         C1      NOp   1
 Largest concise Abelian subgroup C1      NOp   1
                         Standard orientation:                         
 ---------------------------------------------------------------------
 Center     Atomic      Atomic             Coordinates (Angstroms)
 Number     Number       Type             X           Y           Z
 ---------------------------------------------------------------------
      1          6           0       -0.021005    0.355738   -0.266179
      2          8           0        0.276865    1.503180    0.155981
      3          7           0        1.040084   -0.620625   -0.552020
      4          1           0        0.692477   -1.545464   -0.397611
      5          6           0       -1.497149   -0.025619   -0.483356
      6          6           0        2.185621   -0.373208    0.335353
      7          1           0        1.875150   -0.472006    1.354542
      8          1           0        2.957978   -1.083893    0.127292
      9          1           0        2.557560    0.616370    0.170136
     10          9           0       -1.995383   -0.560594    0.651574
     11          1           0       -1.567819   -0.741044   -1.275867
     12          1           0       -2.057215    0.848853   -0.741278
 ---------------------------------------------------------------------
 Rotational constants (GHZ):           6.5154531           2.2549726           1.9553763
 Leave Link  202 at Thu Aug 29 20:28:27 2024, MaxMem=  8589934592 cpu:               0.2 elap:               0.0
 (Enter /share/apps/g16.b01_avx2/g16/l301.exe)
 Standard basis: def2TZVP (5D, 7F)
 Ernie: Thresh=  0.10000D-02 Tol=  0.10000D-05 Strict=F.
 There are   252 symmetry adapted cartesian basis functions of A   symmetry.
 There are   222 symmetry adapted basis functions of A   symmetry.
   222 basis functions,   354 primitive gaussians,   252 cartesian basis functions
    24 alpha electrons       24 beta electrons
       nuclear repulsion energy       241.0434198729 Hartrees.
 IExCor= 1009 DFT=T Ex+Corr=PBE1PBE ExCW=0 ScaHFX=  0.250000
 ScaDFX=  0.750000  0.750000  1.000000  1.000000 ScalE2=  1.000000  1.000000
 IRadAn=  99590 IRanWt=     -1 IRanGd=            0 ICorTp=0 IEmpDi=131
 NAtoms=   12 NActive=   12 NUniq=   12 SFac= 1.00D+00 NAtFMM=   60 NAOKFM=F Big=F
 Integral buffers will be    131072 words long.
 Raffenetti 2 integral format.
 Two-electron integral symmetry is turned on.
 R6Disp:  Grimme-D3 Dispersion energy=       -0.0040678962 Hartrees.
 Nuclear repulsion after empirical dispersion term =      241.0393519768 Hartrees.
 ------------------------------------------------------------------------------
 Polarizable Continuum Model (PCM)
 =================================
 Model                : PCM.
 Atomic radii         : UFF (Universal Force Field).
 Polarization charges : Total charges.
 Charge compensation  : None.
 Solution method      : On-the-fly selection.
 Cavity type          : Scaled VdW (van der Waals Surface) (Alpha=1.100).
 Cavity algorithm     : GePol (No added spheres)
                        Default sphere list used, NSphG=   12.
                        Lebedev-Laikov grids with approx.  5.0 points / Ang**2.
                        Smoothing algorithm: York/Karplus (Gamma=1.0000).
                        Polarization charges: spherical gaussians, with
                                              point-specific exponents (IZeta= 3).
                        Self-potential: point-specific (ISelfS= 7).
                        Self-field    : sphere-specific E.n sum rule (ISelfD= 2).
 1st derivatives      : Analytical E(r).r(x)/FMM algorithm (CHGder, D1EAlg=3).
                        Cavity 1st derivative terms included.
 Solvent              : Water, Eps=  78.355300 Eps(inf)=   1.777849
 ------------------------------------------------------------------------------
 Spheres list:
 ISph  on   Nord     Re0    Alpha      Xe            Ye            Ze
    1   C      1    1.9255  1.100     -0.021005      0.355738     -0.266179
    2   O      2    1.7500  1.100      0.276865      1.503180      0.155981
    3   N      3    1.8300  1.100      1.040084     -0.620625     -0.552020
    4   H      4    1.4430  1.100      0.692477     -1.545464     -0.397611
    5   C      5    1.9255  1.100     -1.497149     -0.025619     -0.483356
    6   C      6    1.9255  1.100      2.185621     -0.373208      0.335353
    7   H      7    1.4430  1.100      1.875150     -0.472006      1.354542
    8   H      8    1.4430  1.100      2.957978     -1.083893      0.127292
    9   H      9    1.4430  1.100      2.557560      0.616370      0.170136
   10   F     10    1.6820  1.100     -1.995383     -0.560594      0.651574
   11   H     11    1.4430  1.100     -1.567819     -0.741044     -1.275867
   12   H     12    1.4430  1.100     -2.057215      0.848853     -0.741278
 ------------------------------------------------------------------------------
 GePol: Number of generator spheres                  =      12
 GePol: Total number of spheres                      =      12
 GePol: Number of exposed spheres                    =      12 (100.00%)
 GePol: Number of points                             =    1110
 GePol: Average weight of points                     =       0.13
 GePol: Minimum weight of points                     =   0.47D-08
 GePol: Maximum weight of points                     =    0.20577
 GePol: Number of points with low weight             =      63
 GePol: Fraction of low-weight points (<1% of avg)   =       5.68%
 GePol: Cavity surface area                          =    148.468 Ang**2
 GePol: Cavity volume                                =    134.130 Ang**3
 Leave Link  301 at Thu Aug 29 20:28:27 2024, MaxMem=  8589934592 cpu:               0.7 elap:               0.0
 (Enter /share/apps/g16.b01_avx2/g16/l302.exe)
 NPDir=0 NMtPBC=     1 NCelOv=     1 NCel=       1 NClECP=     1 NCelD=      1
         NCelK=      1 NCelE2=     1 NClLst=     1 CellRange=     0.0.
 One-electron integrals computed using PRISM.
 One-electron integral symmetry used in STVInt
   1 Symmetry operations used in ECPInt.
 ECPInt:  NShTT=    4095 NPrTT=   12396 LenC2=    4026 LenP2D=    9976.
 LDataN:  DoStor=T MaxTD1= 6 Len=  172
 NBasis=   222 RedAO= T EigKep=  4.47D-04  NBF=   222
 NBsUse=   222 1.00D-06 EigRej= -1.00D+00 NBFU=   222
 Precomputing XC quadrature grid using
 IXCGrd= 4 IRadAn=       99590 IRanWt=          -1 IRanGd=           0 AccXCQ= 0.00D+00.
 Generated NRdTot=       0 NPtTot=           0 NUsed=           0 NTot=          32
 NSgBfM=   251   251   251   251   251 MxSgAt=    12 MxSgA2=    12.
 Leave Link  302 at Thu Aug 29 20:28:27 2024, MaxMem=  8589934592 cpu:               2.8 elap:               0.1
 (Enter /share/apps/g16.b01_avx2/g16/l303.exe)
 DipDrv:  MaxL=1.
 Leave Link  303 at Thu Aug 29 20:28:27 2024, MaxMem=  8589934592 cpu:               0.4 elap:               0.0
 (Enter /share/apps/g16.b01_avx2/g16/l401.exe)
 ExpMin= 9.52D-02 ExpMax= 3.55D+04 ExpMxC= 1.21D+03 IAcc=4 IRadAn=    199590 AccDes= 0.00D+00
 Harris functional with IExCor= 1009 and IRadAn=  199590 diagonalized for initial guess.
 HarFok:  IExCor= 1009 AccDes= 0.00D+00 IRadAn=    199590 IDoV= 1 UseB2=F ITyADJ=14
 ICtDFT=  3500011 ScaDFX=  1.000000  1.000000  1.000000  1.000000
 FoFCou: FMM=F IPFlag=           0 FMFlag=      100000 FMFlg1=           0
         NFxFlg=           0 DoJE=T BraDBF=F KetDBF=T FulRan=T
         wScrn=  0.000000 ICntrl=       500 IOpCl=  0 I1Cent=   200000004 NGrid=           0
         NMat0=    1 NMatS0=      1 NMatT0=    0 NMatD0=    1 NMtDS0=    0 NMtDT0=    0
 Petite list used in FoFCou.
 Harris En= -347.563001135231    
 JPrj=0 DoOrth=F DoCkMO=F.
 Leave Link  401 at Thu Aug 29 20:28:28 2024, MaxMem=  8589934592 cpu:              12.0 elap:               0.5
 (Enter /share/apps/g16.b01_avx2/g16/l502.exe)
 Keep R1 ints in memory in canonical form, NReq=332390461.
 FoFCou: FMM=F IPFlag=           0 FMFlag=           0 FMFlg1=           0
         NFxFlg=           0 DoJE=F BraDBF=F KetDBF=F FulRan=T
         wScrn=  0.000000 ICntrl=       600 IOpCl=  0 I1Cent=           0 NGrid=           0
         NMat0=    1 NMatS0=  24753 NMatT0=    0 NMatD0=    1 NMtDS0=    0 NMtDT0=    0
 Symmetry not used in FoFCou.
 Two-electron integral symmetry not used.
 Closed shell SCF:
 Using DIIS extrapolation, IDIIS=  1040.
 NGot=  8589934592 LenX=  8283431293 LenY=  8283367348
 Requested convergence on RMS density matrix=1.00D-08 within 128 cycles.
 Requested convergence on MAX density matrix=1.00D-06.
 Requested convergence on             energy=1.00D-06.
 No special actions if energy rises.

 Cycle   1  Pass 1  IDiag  1:
 Inv3:  Mode=1 IEnd=     3696300.
 Iteration    1 A*A^-1 deviation from unit magnitude is 3.77D-15 for    739.
 Iteration    1 A*A^-1 deviation from orthogonality  is 1.67D-15 for    872      7.
 Iteration    1 A^-1*A deviation from unit magnitude is 3.66D-15 for    739.
 Iteration    1 A^-1*A deviation from orthogonality  is 1.33D-15 for    907    804.
 E= -347.369990608181    
 DIIS: error= 2.35D-02 at cycle   1 NSaved=   1.
 NSaved= 1 IEnMin= 1 EnMin= -347.369990608181     IErMin= 1 ErrMin= 2.35D-02
 ErrMax= 2.35D-02  0.00D+00 EMaxC= 1.00D-01 BMatC= 1.84D-01 BMatP= 1.84D-01
 IDIUse=3 WtCom= 7.65D-01 WtEn= 2.35D-01
 Coeff-Com:  0.100D+01
 Coeff-En:   0.100D+01
 Coeff:      0.100D+01
 Gap=     0.192 Goal=   None    Shift=    0.000
 GapD=    0.192 DampG=1.000 DampE=0.500 DampFc=0.5000 IDamp=-1.
 Damping current iteration by 5.00D-01
 RMSDP=3.24D-03 MaxDP=1.01D-01              OVMax= 1.86D-01

 Cycle   2  Pass 1  IDiag  1:
 E= -347.408392773553     Delta-E=       -0.038402165372 Rises=F Damp=T
 DIIS: error= 6.01D-03 at cycle   2 NSaved=   2.
 NSaved= 2 IEnMin= 2 EnMin= -347.408392773553     IErMin= 2 ErrMin= 6.01D-03
 ErrMax= 6.01D-03  0.00D+00 EMaxC= 1.00D-01 BMatC= 2.87D-02 BMatP= 1.84D-01
 IDIUse=3 WtCom= 9.40D-01 WtEn= 6.01D-02
 Coeff-Com:  0.196D+00 0.804D+00
 Coeff-En:   0.332D+00 0.668D+00
 Coeff:      0.204D+00 0.796D+00
 Gap=     0.259 Goal=   None    Shift=    0.000
 RMSDP=9.71D-04 MaxDP=3.06D-02 DE=-3.84D-02 OVMax= 1.83D-01

 Cycle   3  Pass 1  IDiag  1:
 E= -347.488047903027     Delta-E=       -0.079655129474 Rises=F Damp=F
 DIIS: error= 6.06D-03 at cycle   3 NSaved=   3.
 NSaved= 3 IEnMin= 3 EnMin= -347.488047903027     IErMin= 2 ErrMin= 6.01D-03
 ErrMax= 6.06D-03  0.00D+00 EMaxC= 1.00D-01 BMatC= 2.12D-02 BMatP= 2.87D-02
 IDIUse=3 WtCom= 9.39D-01 WtEn= 6.06D-02
 Coeff-Com:  0.175D-01 0.457D+00 0.526D+00
 Coeff-En:   0.000D+00 0.000D+00 0.100D+01
 Coeff:      0.164D-01 0.429D+00 0.554D+00
 Gap=     0.253 Goal=   None    Shift=    0.000
 RMSDP=4.93D-04 MaxDP=2.00D-02 DE=-7.97D-02 OVMax= 5.24D-02

 Cycle   4  Pass 1  IDiag  1:
 E= -347.502635310663     Delta-E=       -0.014587407636 Rises=F Damp=F
 DIIS: error= 2.29D-03 at cycle   4 NSaved=   4.
 NSaved= 4 IEnMin= 4 EnMin= -347.502635310663     IErMin= 4 ErrMin= 2.29D-03
 ErrMax= 2.29D-03  0.00D+00 EMaxC= 1.00D-01 BMatC= 2.90D-03 BMatP= 2.12D-02
 IDIUse=3 WtCom= 9.77D-01 WtEn= 2.29D-02
 Coeff-Com: -0.129D-01 0.106D+00 0.303D+00 0.603D+00
 Coeff-En:   0.000D+00 0.000D+00 0.119D+00 0.881D+00
 Coeff:     -0.126D-01 0.104D+00 0.299D+00 0.610D+00
 Gap=     0.245 Goal=   None    Shift=    0.000
 RMSDP=1.74D-04 MaxDP=5.81D-03 DE=-1.46D-02 OVMax= 1.89D-02

 Cycle   5  Pass 1  IDiag  1:
 E= -347.504764905246     Delta-E=       -0.002129594583 Rises=F Damp=F
 DIIS: error= 6.44D-04 at cycle   5 NSaved=   5.
 NSaved= 5 IEnMin= 5 EnMin= -347.504764905246     IErMin= 5 ErrMin= 6.44D-04
 ErrMax= 6.44D-04  0.00D+00 EMaxC= 1.00D-01 BMatC= 2.70D-04 BMatP= 2.90D-03
 IDIUse=3 WtCom= 9.94D-01 WtEn= 6.44D-03
 Coeff-Com: -0.723D-02 0.272D-01 0.129D+00 0.344D+00 0.507D+00
 Coeff-En:   0.000D+00 0.000D+00 0.000D+00 0.887D-02 0.991D+00
 Coeff:     -0.719D-02 0.270D-01 0.128D+00 0.342D+00 0.510D+00
 Gap=     0.245 Goal=   None    Shift=    0.000
 RMSDP=5.01D-05 MaxDP=1.97D-03 DE=-2.13D-03 OVMax= 5.14D-03

 Cycle   6  Pass 1  IDiag  1:
 E= -347.504991133166     Delta-E=       -0.000226227920 Rises=F Damp=F
 DIIS: error= 1.26D-04 at cycle   6 NSaved=   6.
 NSaved= 6 IEnMin= 6 EnMin= -347.504991133166     IErMin= 6 ErrMin= 1.26D-04
 ErrMax= 1.26D-04  0.00D+00 EMaxC= 1.00D-01 BMatC= 9.84D-06 BMatP= 2.70D-04
 IDIUse=3 WtCom= 9.99D-01 WtEn= 1.26D-03
 Coeff-Com: -0.208D-02 0.278D-02 0.322D-01 0.985D-01 0.225D+00 0.643D+00
 Coeff-En:   0.000D+00 0.000D+00 0.000D+00 0.000D+00 0.000D+00 0.100D+01
 Coeff:     -0.208D-02 0.278D-02 0.322D-01 0.983D-01 0.225D+00 0.644D+00
 Gap=     0.245 Goal=   None    Shift=    0.000
 RMSDP=8.31D-06 MaxDP=3.25D-04 DE=-2.26D-04 OVMax= 5.98D-04

 Cycle   7  Pass 1  IDiag  1:
 E= -347.504998493703     Delta-E=       -0.000007360536 Rises=F Damp=F
 DIIS: error= 2.25D-05 at cycle   7 NSaved=   7.
 NSaved= 7 IEnMin= 7 EnMin= -347.504998493703     IErMin= 7 ErrMin= 2.25D-05
 ErrMax= 2.25D-05  0.00D+00 EMaxC= 1.00D-01 BMatC= 2.93D-07 BMatP= 9.84D-06
 IDIUse=1 WtCom= 1.00D+00 WtEn= 0.00D+00
 Coeff-Com: -0.376D-03-0.100D-03 0.635D-02 0.200D-01 0.624D-01 0.227D+00
 Coeff-Com:  0.685D+00
 Coeff:     -0.376D-03-0.100D-03 0.635D-02 0.200D-01 0.624D-01 0.227D+00
 Coeff:      0.685D+00
 Gap=     0.245 Goal=   None    Shift=    0.000
 RMSDP=2.50D-06 MaxDP=5.90D-05 DE=-7.36D-06 OVMax= 1.21D-04

 Cycle   8  Pass 1  IDiag  1:
 E= -347.504998724158     Delta-E=       -0.000000230456 Rises=F Damp=F
 DIIS: error= 6.69D-06 at cycle   8 NSaved=   8.
 NSaved= 8 IEnMin= 8 EnMin= -347.504998724158     IErMin= 8 ErrMin= 6.69D-06
 ErrMax= 6.69D-06  0.00D+00 EMaxC= 1.00D-01 BMatC= 3.07D-08 BMatP= 2.93D-07
 IDIUse=1 WtCom= 1.00D+00 WtEn= 0.00D+00
 Coeff-Com:  0.858D-04-0.358D-03-0.709D-03-0.252D-02 0.142D-02 0.160D-01
 Coeff-Com:  0.257D+00 0.729D+00
 Coeff:      0.858D-04-0.358D-03-0.709D-03-0.252D-02 0.142D-02 0.160D-01
 Coeff:      0.257D+00 0.729D+00
 Gap=     0.245 Goal=   None    Shift=    0.000
 RMSDP=6.05D-07 MaxDP=1.71D-05 DE=-2.30D-07 OVMax= 3.16D-05

 Cycle   9  Pass 1  IDiag  1:
 E= -347.504998750002     Delta-E=       -0.000000025844 Rises=F Damp=F
 DIIS: error= 1.38D-06 at cycle   9 NSaved=   9.
 NSaved= 9 IEnMin= 9 EnMin= -347.504998750002     IErMin= 9 ErrMin= 1.38D-06
 ErrMax= 1.38D-06  0.00D+00 EMaxC= 1.00D-01 BMatC= 6.47D-10 BMatP= 3.07D-08
 IDIUse=1 WtCom= 1.00D+00 WtEn= 0.00D+00
 Coeff-Com:  0.346D-04-0.931D-04-0.350D-03-0.122D-02-0.120D-02-0.349D-02
 Coeff-Com:  0.423D-01 0.178D+00 0.786D+00
 Coeff:      0.346D-04-0.931D-04-0.350D-03-0.122D-02-0.120D-02-0.349D-02
 Coeff:      0.423D-01 0.178D+00 0.786D+00
 Gap=     0.245 Goal=   None    Shift=    0.000
 RMSDP=1.29D-07 MaxDP=3.42D-06 DE=-2.58D-08 OVMax= 7.96D-06

 Cycle  10  Pass 1  IDiag  1:
 E= -347.504998750467     Delta-E=       -0.000000000465 Rises=F Damp=F
 DIIS: error= 7.47D-07 at cycle  10 NSaved=  10.
 NSaved=10 IEnMin=10 EnMin= -347.504998750467     IErMin=10 ErrMin= 7.47D-07
 ErrMax= 7.47D-07  0.00D+00 EMaxC= 1.00D-01 BMatC= 1.81D-10 BMatP= 6.47D-10
 IDIUse=1 WtCom= 1.00D+00 WtEn= 0.00D+00
 Coeff-Com:  0.101D-04-0.200D-04-0.114D-03-0.416D-03-0.674D-03-0.305D-02
 Coeff-Com:  0.257D-02 0.351D-01 0.389D+00 0.578D+00
 Coeff:      0.101D-04-0.200D-04-0.114D-03-0.416D-03-0.674D-03-0.305D-02
 Coeff:      0.257D-02 0.351D-01 0.389D+00 0.578D+00
 Gap=     0.245 Goal=   None    Shift=    0.000
 RMSDP=4.46D-08 MaxDP=1.59D-06 DE=-4.65D-10 OVMax= 2.89D-06

 Cycle  11  Pass 1  IDiag  1:
 E= -347.504998750576     Delta-E=       -0.000000000108 Rises=F Damp=F
 DIIS: error= 2.08D-07 at cycle  11 NSaved=  11.
 NSaved=11 IEnMin=11 EnMin= -347.504998750576     IErMin=11 ErrMin= 2.08D-07
 ErrMax= 2.08D-07  0.00D+00 EMaxC= 1.00D-01 BMatC= 1.50D-11 BMatP= 1.81D-10
 IDIUse=1 WtCom= 1.00D+00 WtEn= 0.00D+00
 Coeff-Com: -0.978D-06 0.432D-05 0.105D-04 0.234D-04-0.284D-04-0.498D-03
 Coeff-Com: -0.504D-02-0.132D-01 0.317D-01 0.240D+00 0.747D+00
 Coeff:     -0.978D-06 0.432D-05 0.105D-04 0.234D-04-0.284D-04-0.498D-03
 Coeff:     -0.504D-02-0.132D-01 0.317D-01 0.240D+00 0.747D+00
 Gap=     0.245 Goal=   None    Shift=    0.000
 RMSDP=1.32D-08 MaxDP=3.68D-07 DE=-1.08D-10 OVMax= 1.64D-06

 Cycle  12  Pass 1  IDiag  1:
 E= -347.504998750586     Delta-E=       -0.000000000011 Rises=F Damp=F
 DIIS: error= 2.85D-08 at cycle  12 NSaved=  12.
 NSaved=12 IEnMin=12 EnMin= -347.504998750586     IErMin=12 ErrMin= 2.85D-08
 ErrMax= 2.85D-08  0.00D+00 EMaxC= 1.00D-01 BMatC= 5.22D-13 BMatP= 1.50D-11
 IDIUse=1 WtCom= 1.00D+00 WtEn= 0.00D+00
 Coeff-Com: -0.564D-06 0.191D-05 0.847D-05 0.212D-04 0.212D-04-0.164D-04
 Coeff-Com: -0.160D-02-0.544D-02-0.113D-01 0.361D-01 0.180D+00 0.802D+00
 Coeff:     -0.564D-06 0.191D-05 0.847D-05 0.212D-04 0.212D-04-0.164D-04
 Coeff:     -0.160D-02-0.544D-02-0.113D-01 0.361D-01 0.180D+00 0.802D+00
 Gap=     0.245 Goal=   None    Shift=    0.000
 RMSDP=4.06D-09 MaxDP=1.09D-07 DE=-1.09D-11 OVMax= 3.95D-07

 Error on total polarization charges =  0.00813
 SCF Done:  E(RPBE1PBE) =  -347.504998751     A.U. after   12 cycles
            NFock= 12  Conv=0.41D-08     -V/T= 2.0045
 KE= 3.459641571372D+02 PE=-1.299461851618D+03 EE= 3.649533437536D+02
 Leave Link  502 at Thu Aug 29 20:28:35 2024, MaxMem=  8589934592 cpu:             129.0 elap:               7.3
 (Enter /share/apps/g16.b01_avx2/g16/l601.exe)
 Copying SCF densities to generalized density rwf, IOpCl= 0 IROHF=0.

 **********************************************************************

            Population analysis using the SCF Density.

 **********************************************************************

 Orbital symmetries:
       Occupied  (A) (A) (A) (A) (A) (A) (A) (A) (A) (A) (A) (A)
                 (A) (A) (A) (A) (A) (A) (A) (A) (A) (A) (A) (A)
       Virtual   (A) (A) (A) (A) (A) (A) (A) (A) (A) (A) (A) (A)
                 (A) (A) (A) (A) (A) (A) (A) (A) (A) (A) (A) (A)
                 (A) (A) (A) (A) (A) (A) (A) (A) (A) (A) (A) (A)
                 (A) (A) (A) (A) (A) (A) (A) (A) (A) (A) (A) (A)
                 (A) (A) (A) (A) (A) (A) (A) (A) (A) (A) (A) (A)
                 (A) (A) (A) (A) (A) (A) (A) (A) (A) (A) (A) (A)
                 (A) (A) (A) (A) (A) (A) (A) (A) (A) (A) (A) (A)
                 (A) (A) (A) (A) (A) (A) (A) (A) (A) (A) (A) (A)
                 (A) (A) (A) (A) (A) (A) (A) (A) (A) (A) (A) (A)
                 (A) (A) (A) (A) (A) (A) (A) (A) (A) (A) (A) (A)
                 (A) (A) (A) (A) (A) (A) (A) (A) (A) (A) (A) (A)
                 (A) (A) (A) (A) (A) (A) (A) (A) (A) (A) (A) (A)
                 (A) (A) (A) (A) (A) (A) (A) (A) (A) (A) (A) (A)
                 (A) (A) (A) (A) (A) (A) (A) (A) (A) (A) (A) (A)
                 (A) (A) (A) (A) (A) (A) (A) (A) (A) (A) (A) (A)
                 (A) (A) (A) (A) (A) (A) (A) (A) (A) (A) (A) (A)
                 (A) (A) (A) (A) (A) (A)
 The electronic state is 1-A.
 Alpha  occ. eigenvalues --  -24.77940 -19.20666 -14.41956 -10.35276 -10.31017
 Alpha  occ. eigenvalues --  -10.24018  -1.26181  -1.07061  -0.94415  -0.77458
 Alpha  occ. eigenvalues --   -0.70585  -0.60136  -0.55693  -0.54388  -0.53514
 Alpha  occ. eigenvalues --   -0.47791  -0.47113  -0.45705  -0.40651  -0.39917
 Alpha  occ. eigenvalues --   -0.39368  -0.37370  -0.30586  -0.28249
 Alpha virt. eigenvalues --   -0.03719   0.05171   0.08088   0.10011   0.11625
 Alpha virt. eigenvalues --    0.12177   0.13070   0.14174   0.15164   0.17006
 Alpha virt. eigenvalues --    0.18187   0.22287   0.24622   0.25284   0.26221
 Alpha virt. eigenvalues --    0.28510   0.30710   0.32640   0.33975   0.36407
 Alpha virt. eigenvalues --    0.37209   0.38766   0.39772   0.42229   0.42887
 Alpha virt. eigenvalues --    0.43426   0.46703   0.48087   0.49372   0.49920
 Alpha virt. eigenvalues --    0.51433   0.53112   0.53423   0.56829   0.58513
 Alpha virt. eigenvalues --    0.60405   0.61632   0.68207   0.72028   0.73034
 Alpha virt. eigenvalues --    0.75151   0.76159   0.80259   0.82861   0.86475
 Alpha virt. eigenvalues --    0.87685   0.92206   0.95028   0.97093   0.97596
 Alpha virt. eigenvalues --    1.00892   1.02821   1.06408   1.11342   1.18898
 Alpha virt. eigenvalues --    1.23441   1.23991   1.29384   1.34778   1.37433
 Alpha virt. eigenvalues --    1.44975   1.46521   1.47291   1.48361   1.53470
 Alpha virt. eigenvalues --    1.54404   1.55438   1.56722   1.58224   1.60265
 Alpha virt. eigenvalues --    1.67623   1.70030   1.70588   1.73349   1.75887
 Alpha virt. eigenvalues --    1.81779   1.83852   1.87369   1.92363   1.94076
 Alpha virt. eigenvalues --    1.94743   1.98280   2.01651   2.03992   2.04244
 Alpha virt. eigenvalues --    2.07529   2.15442   2.17825   2.20571   2.22632
 Alpha virt. eigenvalues --    2.25176   2.28337   2.32991   2.35690   2.37026
 Alpha virt. eigenvalues --    2.37530   2.41016   2.45355   2.48432   2.52162
 Alpha virt. eigenvalues --    2.57354   2.57877   2.64092   2.65173   2.66601
 Alpha virt. eigenvalues --    2.69256   2.73557   2.75059   2.77606   2.83286
 Alpha virt. eigenvalues --    2.87656   2.93261   2.95647   2.96791   3.03428
 Alpha virt. eigenvalues --    3.04470   3.05375   3.08711   3.10926   3.12825
 Alpha virt. eigenvalues --    3.14826   3.16546   3.17499   3.21367   3.22857
 Alpha virt. eigenvalues --    3.25645   3.28214   3.32259   3.33934   3.35155
 Alpha virt. eigenvalues --    3.38189   3.44622   3.47962   3.49903   3.55673
 Alpha virt. eigenvalues --    3.56917   3.60772   3.63663   3.68162   3.68945
 Alpha virt. eigenvalues --    3.77864   3.81867   3.86075   3.86975   4.01911
 Alpha virt. eigenvalues --    4.02648   4.08550   4.11195   4.16349   4.26238
 Alpha virt. eigenvalues --    4.38944   4.40501   4.42455   4.45349   4.55680
 Alpha virt. eigenvalues --    4.63092   4.74429   4.78859   4.97964   4.99316
 Alpha virt. eigenvalues --    5.05652   5.12747   5.15493   5.20601   5.21816
 Alpha virt. eigenvalues --    5.22364   5.27551   5.35955   5.45805   5.56901
 Alpha virt. eigenvalues --    5.69170   5.83096   6.01550   6.20012   6.39339
 Alpha virt. eigenvalues --    6.43075   6.52897   6.80899   6.88353   6.89082
 Alpha virt. eigenvalues --    6.98244   6.99051   7.01779   7.02832   7.26725
 Alpha virt. eigenvalues --    7.27712   7.32145   8.37959   8.39791   8.79567
 Alpha virt. eigenvalues --    8.84205   9.00033  22.49767  22.51400  22.92123
 Alpha virt. eigenvalues --   32.23623  43.87125  57.25757
          Condensed to atoms (all electrons):
               1          2          3          4          5          6
     1  C    4.610638   0.601396   0.376079  -0.030060   0.343211  -0.037937
     2  O    0.601396   7.970635  -0.108831   0.004041  -0.063224  -0.007014
     3  N    0.376079  -0.108831   6.542085   0.360104  -0.066658   0.274890
     4  H   -0.030060   0.004041   0.360104   0.452183   0.000968  -0.035487
     5  C    0.343211  -0.063224  -0.066658   0.000968   4.699468   0.005662
     6  C   -0.037937  -0.007014   0.274890  -0.035487   0.005662   4.861669
     7  H   -0.002983   0.004064  -0.055683  -0.006039   0.000919   0.436158
     8  H    0.008015   0.002202  -0.027194  -0.004191   0.000146   0.397869
     9  H   -0.015398   0.011593  -0.027474   0.007650   0.000720   0.407638
    10  F   -0.044606   0.001409   0.001516   0.002077   0.257729  -0.002030
    11  H   -0.055154   0.005127   0.008438  -0.003790   0.412063   0.000054
    12  H   -0.023996   0.005043   0.006214   0.000906   0.399502  -0.001084
               7          8          9         10         11         12
     1  C   -0.002983   0.008015  -0.015398  -0.044606  -0.055154  -0.023996
     2  O    0.004064   0.002202   0.011593   0.001409   0.005127   0.005043
     3  N   -0.055683  -0.027194  -0.027474   0.001516   0.008438   0.006214
     4  H   -0.006039  -0.004191   0.007650   0.002077  -0.003790   0.000906
     5  C    0.000919   0.000146   0.000720   0.257729   0.412063   0.399502
     6  C    0.436158   0.397869   0.407638  -0.002030   0.000054  -0.001084
     7  H    0.536885  -0.025620  -0.033028   0.000435   0.000263  -0.000132
     8  H   -0.025620   0.519441  -0.018037  -0.000015  -0.000168   0.000015
     9  H   -0.033028  -0.018037   0.520970  -0.000021  -0.000276   0.000060
    10  F    0.000435  -0.000015  -0.000021   9.080856  -0.037459  -0.037365
    11  H    0.000263  -0.000168  -0.000276  -0.037459   0.585250  -0.046492
    12  H   -0.000132   0.000015   0.000060  -0.037365  -0.046492   0.566463
 Mulliken charges:
               1
     1  C    0.270794
     2  O   -0.426439
     3  N   -0.283485
     4  H    0.251637
     5  C    0.009494
     6  C   -0.300387
     7  H    0.144761
     8  H    0.147537
     9  H    0.145603
    10  F   -0.222524
    11  H    0.132144
    12  H    0.130866
 Sum of Mulliken charges =  -0.00000
 Mulliken charges with hydrogens summed into heavy atoms:
               1
     1  C    0.270794
     2  O   -0.426439
     3  N   -0.031848
     5  C    0.272504
     6  C    0.137514
    10  F   -0.222524
 Electronic spatial extent (au):  <R**2>=            634.5521
 Charge=              0.0000 electrons
 Dipole moment (field-independent basis, Debye):
    X=              0.3056    Y=             -3.4910    Z=             -1.3349  Tot=              3.7500
 Quadrupole moment (field-independent basis, Debye-Ang):
   XX=            -32.6412   YY=            -37.4715   ZZ=            -35.9520
   XY=             -3.3503   XZ=              4.8500   YZ=             -0.6640
 Traceless Quadrupole moment (field-independent basis, Debye-Ang):
   XX=              2.7137   YY=             -2.1166   ZZ=             -0.5971
   XY=             -3.3503   XZ=              4.8500   YZ=             -0.6640
 Octapole moment (field-independent basis, Debye-Ang**2):
  XXX=             -2.0289  YYY=            -16.3062  ZZZ=              5.6843  XYY=             -3.0838
  XXY=              0.6719  XXZ=             -2.5145  XZZ=             -6.5692  YZZ=             -0.2112
  YYZ=             -1.4845  XYZ=             -1.8629
 Hexadecapole moment (field-independent basis, Debye-Ang**3):
 XXXX=           -491.5188 YYYY=           -165.2192 ZZZZ=            -87.3058 XXXY=             -7.0929
 XXXZ=              5.6622 YYYX=              0.7997 YYYZ=             -1.2497 ZZZX=             -2.6947
 ZZZY=             -3.2112 XXYY=           -105.7860 XXZZ=           -102.2442 YYZZ=            -41.1491
 XXYZ=             -0.2667 YYXZ=             -1.5249 ZZXY=              3.6219
 N-N= 2.410393519768D+02 E-N=-1.299461853562D+03  KE= 3.459641571372D+02
 No NMR shielding tensors so no spin-rotation constants.
 Leave Link  601 at Thu Aug 29 20:28:35 2024, MaxMem=  8589934592 cpu:               1.9 elap:               0.1
 (Enter /share/apps/g16.b01_avx2/g16/l701.exe)
 ... and contract with generalized density number  0.
 Compute integral first derivatives.
 R6Disp: Adding Grimme-D3 dispersion energy 1st derivatives to the gradient.
   1 Symmetry operations used in ECPInt.
 ECPInt:  NShTT=    4095 NPrTT=   12396 LenC2=    4026 LenP2D=    9976.
 LDataN:  DoStor=T MaxTD1= 7 Len=  274
 D1PCM: PCM CHGder 1st derivatives, ID1Alg=3 FixD1E=F DoIter=F DoCFld=F I1PDM=0.
 GePol: Maximum number of non-zero 1st derivatives   =     219
 Leave Link  701 at Thu Aug 29 20:28:36 2024, MaxMem=  8589934592 cpu:              10.4 elap:               0.4
 (Enter /share/apps/g16.b01_avx2/g16/l702.exe)
 L702 exits ... SP integral derivatives will be done elsewhere.
 Leave Link  702 at Thu Aug 29 20:28:36 2024, MaxMem=  8589934592 cpu:               0.3 elap:               0.0
 (Enter /share/apps/g16.b01_avx2/g16/l703.exe)
 Integral derivatives from FoFJK, PRISM(SPDF).
 Compute integral first derivatives, UseDBF=F ICtDFT=           0.
 Calling FoFJK, ICntrl=      2127 FMM=F ISym2X=0 I1Cent= 0 IOpClX= 0 NMat=1 NMatS=1 NMatT=0.
 FoFJK:  IHMeth= 1 ICntrl=    2127 DoSepK=F KAlg= 0 I1Cent=           0 FoldK=F
 IRaf=         0 NMat=       1 IRICut=       1 DoRegI=T DoRafI=F ISym2E= 0 IDoP0=0 IntGTp=1.
 FoFCou: FMM=F IPFlag=           0 FMFlag=      100000 FMFlg1=         800
         NFxFlg=           0 DoJE=F BraDBF=F KetDBF=F FulRan=T
         wScrn=  0.000000 ICntrl=      2127 IOpCl=  0 I1Cent=           0 NGrid=           0
         NMat0=    1 NMatS0=      1 NMatT0=    0 NMatD0=    1 NMtDS0=    0 NMtDT0=    0
 Symmetry not used in FoFCou.
 Leave Link  703 at Thu Aug 29 20:28:38 2024, MaxMem=  8589934592 cpu:              54.3 elap:               2.3
 (Enter /share/apps/g16.b01_avx2/g16/l716.exe)
 Dipole        = 1.20235612D-01-1.37345706D+00-5.25196988D-01
 ***** Axes restored to original set *****
 -------------------------------------------------------------------
 Center     Atomic                   Forces (Hartrees/Bohr)
 Number     Number              X              Y              Z
 -------------------------------------------------------------------
      1        6           0.010816538   -0.054038508    0.009898699
      2        8           0.030054883    0.059501466    0.001982018
      3        7          -0.066048909   -0.014597096   -0.026399389
      4        1           0.004726488    0.015266784    0.000615259
      5        6           0.018883271   -0.017700405    0.019833028
      6        6          -0.002700275    0.013070110    0.011840100
      7        1          -0.000415429   -0.005456544   -0.015517432
      8        1           0.013118585    0.001264409    0.004025618
      9        1          -0.004338476   -0.009290423    0.005555271
     10        9           0.002543158    0.002773518   -0.022940304
     11        1           0.006747262    0.014068824    0.007133434
     12        1          -0.013387097   -0.004862135    0.003973699
 -------------------------------------------------------------------
 Cartesian Forces:  Max     0.066048909 RMS     0.021175604
 Leave Link  716 at Thu Aug 29 20:28:38 2024, MaxMem=  8589934592 cpu:               0.3 elap:               0.0
 (Enter /share/apps/g16.b01_avx2/g16/l103.exe)

 GradGradGradGradGradGradGradGradGradGradGradGradGradGradGradGradGradGrad
 Berny optimization.
 FormGI is forming the generalized inverse of G from B-inverse, IUseBI=4.
 Internal  Forces:  Max     0.066645978 RMS     0.015813916
 Search for a local minimum.
 Step number   1 out of a maximum of   55
 All quantities printed in internal units (Hartrees-Bohrs-Radians)
 RMS Force = .15814D-01 SwitMx=.10000D-02 MixMth= 1
 Mixed Optimization -- RFO/linear search
 Second derivative matrix not updated -- first step.
 ITU=  0
     Eigenvalues ---    0.00237   0.00448   0.00766   0.00766   0.03399
     Eigenvalues ---    0.07243   0.07537   0.07537   0.07548   0.11287
     Eigenvalues ---    0.16000   0.16000   0.16000   0.16000   0.16000
     Eigenvalues ---    0.22528   0.23464   0.25000   0.25000   0.28519
     Eigenvalues ---    0.35740   0.35740   0.37230   0.37230   0.37230
     Eigenvalues ---    0.37230   0.37230   0.47688   0.55021   0.80209
 RFO step:  Lambda=-2.67115949D-02 EMin= 2.36824135D-03
 Linear search not attempted -- first point.
 Iteration  1 RMS(Cart)=  0.09716834 RMS(Int)=  0.00558996
 Iteration  2 RMS(Cart)=  0.00924528 RMS(Int)=  0.00168331
 Iteration  3 RMS(Cart)=  0.00002953 RMS(Int)=  0.00168319
 Iteration  4 RMS(Cart)=  0.00000003 RMS(Int)=  0.00168319
 ITry= 1 IFail=0 DXMaxC= 2.36D-01 DCOld= 1.00D+10 DXMaxT= 3.00D-01 DXLimC= 3.00D+00 Rises=F
 Variable       Old X    -DE/DX   Delta X   Delta X   Delta X     New X
                                 (Linear)    (Quad)   (Total)
    R1        2.37803  -0.06665   0.00000  -0.08041  -0.08041   2.29762
    R2        2.77790  -0.05862   0.00000  -0.15261  -0.15261   2.62529
    R3        2.91018  -0.01365   0.00000  -0.04375  -0.04375   2.86643
    R4        1.88973   0.01362   0.00000   0.02704   0.02704   1.91676
    R5        2.77790   0.00097   0.00000   0.00251   0.00251   2.78041
    R6        2.55113   0.02312   0.00000   0.04007   0.04007   2.59120
    R7        2.02201   0.01703   0.00000   0.04269   0.04269   2.06469
    R8        2.02201   0.01438   0.00000   0.03603   0.03603   2.05804
    R9        2.02201   0.01589   0.00000   0.03982   0.03982   2.06183
   R10        2.02201   0.01370   0.00000   0.03435   0.03435   2.05635
   R11        2.02201   0.01165   0.00000   0.02919   0.02919   2.05120
    A1        2.09440   0.01126   0.00000   0.04069   0.04046   2.13486
    A2        2.09440   0.00566   0.00000   0.02044   0.02023   2.11462
    A3        2.09440  -0.01692   0.00000  -0.06113  -0.06135   2.03304
    A4        1.91063  -0.00730   0.00000   0.00548  -0.00230   1.90833
    A5        1.91063   0.02368   0.00000   0.10765   0.10295   2.01359
    A6        1.91063   0.00097   0.00000   0.05880   0.05415   1.96478
    A7        1.91063  -0.00471   0.00000  -0.02043  -0.02058   1.89005
    A8        1.91063   0.00439   0.00000   0.02530   0.02541   1.93604
    A9        1.91063  -0.00435   0.00000  -0.02494  -0.02509   1.88554
   A10        1.91063   0.00022   0.00000  -0.00047  -0.00036   1.91027
   A11        1.91063   0.00278   0.00000   0.00640   0.00595   1.91659
   A12        1.91063   0.00167   0.00000   0.01414   0.01425   1.92489
   A13        1.91063   0.00689   0.00000   0.04023   0.04020   1.95083
   A14        1.91063  -0.00315   0.00000  -0.01864  -0.01868   1.89196
   A15        1.91063  -0.00038   0.00000  -0.00362  -0.00378   1.90685
   A16        1.91063  -0.00098   0.00000  -0.00206  -0.00197   1.90866
   A17        1.91063  -0.00227   0.00000  -0.00862  -0.00876   1.90187
   A18        1.91063  -0.00011   0.00000  -0.00729  -0.00747   1.90316
    D1        2.61799   0.00521   0.00000   0.06073   0.06068   2.67867
    D2        0.52360  -0.00601   0.00000  -0.08057  -0.08024   0.44336
    D3       -0.52360   0.00401   0.00000   0.02223   0.02190  -0.50170
    D4       -2.61799  -0.00721   0.00000  -0.11907  -0.11902  -2.73702
    D5       -1.57080   0.00001   0.00000  -0.01627  -0.01640  -1.58720
    D6        2.61799  -0.00006   0.00000  -0.01868  -0.01859   2.59941
    D7        0.52360  -0.00214   0.00000  -0.03621  -0.03588   0.48772
    D8        1.57080   0.00121   0.00000   0.02223   0.02190   1.59269
    D9       -0.52360   0.00114   0.00000   0.01982   0.01971  -0.50388
   D10       -2.61799  -0.00093   0.00000   0.00229   0.00242  -2.61557
   D11        1.04720   0.00292   0.00000   0.04915   0.05117   1.09837
   D12        3.14159   0.00401   0.00000   0.05986   0.06167  -3.07992
   D13       -1.04720   0.00171   0.00000   0.03729   0.03923  -1.00797
   D14       -1.04720  -0.00323   0.00000  -0.05949  -0.06132  -1.10852
   D15        1.04720  -0.00213   0.00000  -0.04879  -0.05082   0.99638
   D16        3.14159  -0.00444   0.00000  -0.07135  -0.07326   3.06834
         Item               Value     Threshold  Converged?
 Maximum Force            0.066646     0.000450     NO 
 RMS     Force            0.015814     0.000300     NO 
 Maximum Displacement     0.235812     0.001800     NO 
 RMS     Displacement     0.100339     0.001200     NO 
 Predicted change in Energy=-1.498132D-02
 Lowest energy point so far.  Saving SCF results.
 GradGradGradGradGradGradGradGradGradGradGradGradGradGradGradGradGradGrad

 Leave Link  103 at Thu Aug 29 20:28:38 2024, MaxMem=  8589934592 cpu:               0.3 elap:               0.0
 (Enter /share/apps/g16.b01_avx2/g16/l202.exe)
                          Input orientation:                          
 ---------------------------------------------------------------------
 Center     Atomic      Atomic             Coordinates (Angstroms)
 Number     Number       Type             X           Y           Z
 ---------------------------------------------------------------------
      1          6           0        0.611723    0.775820    0.115066
      2          8           0       -0.012315   -0.267081    0.080155
      3          7           0        1.975290    0.816998    0.377718
      4          1           0        2.374928    1.645252   -0.050188
      5          6           0       -0.080717    2.111587   -0.077494
      6          6           0        2.719231   -0.407158    0.041852
      7          1           0        2.683890   -0.621751   -1.027326
      8          1           0        3.754708   -0.275066    0.349202
      9          1           0        2.292972   -1.245221    0.584207
     10          9           0       -0.054367    2.421432   -1.412974
     11          1           0        0.424153    2.898047    0.488490
     12          1           0       -1.111914    2.008123    0.257158
 ---------------------------------------------------------------------
                    Distance matrix (angstroms):
                    1          2          3          4          5
     1  C    0.000000
     2  O    1.215847   0.000000
     3  N    1.389242   2.283494   0.000000
     4  H    1.972843   3.061525   1.014307   0.000000
     5  C    1.516848   2.384868   2.471911   2.499681   0.000000
     6  C    2.417930   2.735404   1.471330   2.083124   3.768027
     7  H    2.748116   2.936295   2.132197   2.487883   4.002046
     8  H    3.322278   3.776627   2.088001   2.398109   4.537474
     9  H    2.670449   2.554443   2.096738   2.960407   4.164182
    10  F    2.342354   3.075598   3.146473   2.891559   1.371205
    11  H    2.162978   3.221067   2.597895   2.380166   1.092589
    12  H    2.123602   2.533179   3.311214   3.519119   1.089066
                    6          7          8          9         10
     6  C    0.000000
     7  H    1.091074   0.000000
     8  H    1.088175   1.778109   0.000000
     9  H    1.085447   1.771601   1.770056   0.000000
    10  F    4.220223   4.111902   4.988529   4.789893   0.000000
    11  H    4.048611   4.448942   4.602243   4.546242   2.017847
    12  H    4.534050   4.793147   5.376377   4.720642   2.019547
                   11         12
    11  H    0.000000
    12  H    1.790246   0.000000
 Stoichiometry    C3H6FNO
 Framework group  C1[X(C3H6FNO)]
 Deg. of freedom    30
 Full point group                 C1      NOp   1
 RotChk:  IX=0 Diff= 2.90D-02
 Largest Abelian subgroup         C1      NOp   1
 Largest concise Abelian subgroup C1      NOp   1
                         Standard orientation:                         
 ---------------------------------------------------------------------
 Center     Atomic      Atomic             Coordinates (Angstroms)
 Number     Number       Type             X           Y           Z
 ---------------------------------------------------------------------
      1          6           0       -0.020056    0.376990   -0.218192
      2          8           0        0.245289    1.496198    0.175828
      3          7           0        0.961206   -0.573023   -0.472351
      4          1           0        0.567765   -1.500991   -0.358781
      5          6           0       -1.451077   -0.034507   -0.507456
      6          6           0        2.217305   -0.396969    0.273325
      7          1           0        2.064858   -0.486838    1.349952
      8          1           0        2.921840   -1.158091   -0.055990
      9          1           0        2.628231    0.583860    0.055816
     10          9           0       -1.983654   -0.572498    0.635842
     11          1           0       -1.489614   -0.774791   -1.310105
     12          1           0       -2.007986    0.857826   -0.789693
 ---------------------------------------------------------------------
 Rotational constants (GHZ):           6.7019077           2.3045828           1.9820254
 Leave Link  202 at Thu Aug 29 20:28:38 2024, MaxMem=  8589934592 cpu:               0.0 elap:               0.0
 (Enter /share/apps/g16.b01_avx2/g16/l301.exe)
 Standard basis: def2TZVP (5D, 7F)
 Ernie: Thresh=  0.10000D-02 Tol=  0.10000D-05 Strict=F.
 There are   252 symmetry adapted cartesian basis functions of A   symmetry.
 There are   222 symmetry adapted basis functions of A   symmetry.
   222 basis functions,   354 primitive gaussians,   252 cartesian basis functions
    24 alpha electrons       24 beta electrons
       nuclear repulsion energy       243.5517210609 Hartrees.
 IExCor= 1009 DFT=T Ex+Corr=PBE1PBE ExCW=0 ScaHFX=  0.250000
 ScaDFX=  0.750000  0.750000  1.000000  1.000000 ScalE2=  1.000000  1.000000
 IRadAn=  99590 IRanWt=     -1 IRanGd=            0 ICorTp=0 IEmpDi=131
 NAtoms=   12 NActive=   12 NUniq=   12 SFac= 1.00D+00 NAtFMM=   60 NAOKFM=F Big=F
 Integral buffers will be    131072 words long.
 Raffenetti 2 integral format.
 Two-electron integral symmetry is turned on.
 R6Disp:  Grimme-D3 Dispersion energy=       -0.0040628161 Hartrees.
 Nuclear repulsion after empirical dispersion term =      243.5476582448 Hartrees.
 ------------------------------------------------------------------------------
 Polarizable Continuum Model (PCM)
 =================================
 Model                : PCM.
 Atomic radii         : UFF (Universal Force Field).
 Polarization charges : Total charges.
 Charge compensation  : None.
 Solution method      : On-the-fly selection.
 Cavity type          : Scaled VdW (van der Waals Surface) (Alpha=1.100).
 Cavity algorithm     : GePol (No added spheres)
                        Default sphere list used, NSphG=   12.
                        Lebedev-Laikov grids with approx.  5.0 points / Ang**2.
                        Smoothing algorithm: York/Karplus (Gamma=1.0000).
                        Polarization charges: spherical gaussians, with
                                              point-specific exponents (IZeta= 3).
                        Self-potential: point-specific (ISelfS= 7).
                        Self-field    : sphere-specific E.n sum rule (ISelfD= 2).
 1st derivatives      : Analytical E(r).r(x)/FMM algorithm (CHGder, D1EAlg=3).
                        Cavity 1st derivative terms included.
 Solvent              : Water, Eps=  78.355300 Eps(inf)=   1.777849
 ------------------------------------------------------------------------------
 Spheres list:
 ISph  on   Nord     Re0    Alpha      Xe            Ye            Ze
    1   C      1    1.9255  1.100     -0.020056      0.376990     -0.218192
    2   O      2    1.7500  1.100      0.245289      1.496198      0.175828
    3   N      3    1.8300  1.100      0.961206     -0.573023     -0.472351
    4   H      4    1.4430  1.100      0.567765     -1.500991     -0.358781
    5   C      5    1.9255  1.100     -1.451077     -0.034507     -0.507456
    6   C      6    1.9255  1.100      2.217305     -0.396969      0.273325
    7   H      7    1.4430  1.100      2.064858     -0.486838      1.349952
    8   H      8    1.4430  1.100      2.921840     -1.158091     -0.055990
    9   H      9    1.4430  1.100      2.628231      0.583860      0.055816
   10   F     10    1.6820  1.100     -1.983654     -0.572498      0.635842
   11   H     11    1.4430  1.100     -1.489614     -0.774791     -1.310105
   12   H     12    1.4430  1.100     -2.007986      0.857826     -0.789693
 ------------------------------------------------------------------------------
 GePol: Number of generator spheres                  =      12
 GePol: Total number of spheres                      =      12
 GePol: Number of exposed spheres                    =      12 (100.00%)
 GePol: Number of points                             =    1118
 GePol: Average weight of points                     =       0.13
 GePol: Minimum weight of points                     =   0.75D-09
 GePol: Maximum weight of points                     =    0.20577
 GePol: Number of points with low weight             =      67
 GePol: Fraction of low-weight points (<1% of avg)   =       5.99%
 GePol: Cavity surface area                          =    147.992 Ang**2
 GePol: Cavity volume                                =    133.646 Ang**3
 Leave Link  301 at Thu Aug 29 20:28:38 2024, MaxMem=  8589934592 cpu:               0.7 elap:               0.0
 (Enter /share/apps/g16.b01_avx2/g16/l302.exe)
 NPDir=0 NMtPBC=     1 NCelOv=     1 NCel=       1 NClECP=     1 NCelD=      1
         NCelK=      1 NCelE2=     1 NClLst=     1 CellRange=     0.0.
 One-electron integrals computed using PRISM.
 One-electron integral symmetry used in STVInt
   1 Symmetry operations used in ECPInt.
 ECPInt:  NShTT=    4095 NPrTT=   12396 LenC2=    4025 LenP2D=   10000.
 LDataN:  DoStor=T MaxTD1= 6 Len=  172
 NBasis=   222 RedAO= T EigKep=  4.06D-04  NBF=   222
 NBsUse=   222 1.00D-06 EigRej= -1.00D+00 NBFU=   222
 Precomputing XC quadrature grid using
 IXCGrd= 4 IRadAn=       99590 IRanWt=          -1 IRanGd=           0 AccXCQ= 0.00D+00.
 Generated NRdTot=       0 NPtTot=           0 NUsed=           0 NTot=          32
 NSgBfM=   251   251   251   251   251 MxSgAt=    12 MxSgA2=    12.
 Leave Link  302 at Thu Aug 29 20:28:38 2024, MaxMem=  8589934592 cpu:               2.8 elap:               0.1
 (Enter /share/apps/g16.b01_avx2/g16/l303.exe)
 DipDrv:  MaxL=1.
 Leave Link  303 at Thu Aug 29 20:28:38 2024, MaxMem=  8589934592 cpu:               0.5 elap:               0.0
 (Enter /share/apps/g16.b01_avx2/g16/l401.exe)
 Initial guess from the checkpoint file:  "/scratch/Gau-2009534.chk"
 B after Tr=    -0.000000    0.000000    0.000000
         Rot=    0.999970   -0.007067   -0.003233   -0.000169 Ang=  -0.89 deg.
 Guess basis will be translated and rotated to current coordinates.
 JPrj=2 DoOrth=T DoCkMO=T.
 Generating alternative initial guess.
 ExpMin= 9.52D-02 ExpMax= 3.55D+04 ExpMxC= 1.21D+03 IAcc=4 IRadAn=    199590 AccDes= 0.00D+00
 Harris functional with IExCor= 1009 and IRadAn=  199590 diagonalized for initial guess.
 HarFok:  IExCor= 1009 AccDes= 0.00D+00 IRadAn=    199590 IDoV= 1 UseB2=F ITyADJ=14
 ICtDFT=  3500011 ScaDFX=  1.000000  1.000000  1.000000  1.000000
 FoFCou: FMM=F IPFlag=           0 FMFlag=      100000 FMFlg1=           0
         NFxFlg=           0 DoJE=T BraDBF=F KetDBF=T FulRan=T
         wScrn=  0.000000 ICntrl=       500 IOpCl=  0 I1Cent=   200000004 NGrid=           0
         NMat0=    1 NMatS0=      1 NMatT0=    0 NMatD0=    1 NMtDS0=    0 NMtDT0=    0
 Petite list used in FoFCou.
 Harris En= -347.574764091068    
 Leave Link  401 at Thu Aug 29 20:28:39 2024, MaxMem=  8589934592 cpu:              13.1 elap:               0.6
 (Enter /share/apps/g16.b01_avx2/g16/l502.exe)
 Keep R1 ints in memory in canonical form, NReq=332390461.
 FoFCou: FMM=F IPFlag=           0 FMFlag=           0 FMFlg1=           0
         NFxFlg=           0 DoJE=F BraDBF=F KetDBF=F FulRan=T
         wScrn=  0.000000 ICntrl=       600 IOpCl=  0 I1Cent=           0 NGrid=           0
         NMat0=    1 NMatS0=  24753 NMatT0=    0 NMatD0=    1 NMtDS0=    0 NMtDT0=    0
 Symmetry not used in FoFCou.
 Two-electron integral symmetry not used.
 Closed shell SCF:
 Using DIIS extrapolation, IDIIS=  1040.
 NGot=  8589934592 LenX=  8283431293 LenY=  8283367348
 Requested convergence on RMS density matrix=1.00D-08 within 128 cycles.
 Requested convergence on MAX density matrix=1.00D-06.
 Requested convergence on             energy=1.00D-06.
 No special actions if energy rises.

 Cycle   1  Pass 1  IDiag  1:
 Inv3:  Mode=1 IEnd=     3749772.
 Iteration    1 A*A^-1 deviation from unit magnitude is 2.44D-15 for    235.
 Iteration    1 A*A^-1 deviation from orthogonality  is 1.33D-15 for    900    250.
 Iteration    1 A^-1*A deviation from unit magnitude is 2.55D-15 for    235.
 Iteration    1 A^-1*A deviation from orthogonality  is 2.22D-15 for    965    425.
 E= -347.507526757312    
 DIIS: error= 5.26D-03 at cycle   1 NSaved=   1.
 NSaved= 1 IEnMin= 1 EnMin= -347.507526757312     IErMin= 1 ErrMin= 5.26D-03
 ErrMax= 5.26D-03  0.00D+00 EMaxC= 1.00D-01 BMatC= 1.14D-02 BMatP= 1.14D-02
 IDIUse=3 WtCom= 9.47D-01 WtEn= 5.26D-02
 Coeff-Com:  0.100D+01
 Coeff-En:   0.100D+01
 Coeff:      0.100D+01
 Gap=     0.688 Goal=   None    Shift=    0.000
 GapD=    0.688 DampG=2.000 DampE=1.000 DampFc=2.0000 IDamp=-1.
 RMSDP=5.37D-04 MaxDP=9.64D-03              OVMax= 3.58D-02

 Cycle   2  Pass 1  IDiag  1:
 E= -347.521106367953     Delta-E=       -0.013579610641 Rises=F Damp=F
 DIIS: error= 1.11D-03 at cycle   2 NSaved=   2.
 NSaved= 2 IEnMin= 2 EnMin= -347.521106367953     IErMin= 2 ErrMin= 1.11D-03
 ErrMax= 1.11D-03  0.00D+00 EMaxC= 1.00D-01 BMatC= 8.57D-04 BMatP= 1.14D-02
 IDIUse=3 WtCom= 9.89D-01 WtEn= 1.11D-02
 Coeff-Com:  0.708D-01 0.929D+00
 Coeff-En:   0.000D+00 0.100D+01
 Coeff:      0.700D-01 0.930D+00
 Gap=     0.265 Goal=   None    Shift=    0.000
 RMSDP=2.01D-04 MaxDP=5.72D-03 DE=-1.36D-02 OVMax= 1.25D-02

 Cycle   3  Pass 1  IDiag  1:
 E= -347.521245645642     Delta-E=       -0.000139277690 Rises=F Damp=F
 DIIS: error= 1.03D-03 at cycle   3 NSaved=   3.
 NSaved= 3 IEnMin= 3 EnMin= -347.521245645642     IErMin= 3 ErrMin= 1.03D-03
 ErrMax= 1.03D-03  0.00D+00 EMaxC= 1.00D-01 BMatC= 7.65D-04 BMatP= 8.57D-04
 IDIUse=3 WtCom= 9.90D-01 WtEn= 1.03D-02
 Coeff-Com: -0.318D-01 0.493D+00 0.539D+00
 Coeff-En:   0.000D+00 0.447D+00 0.553D+00
 Coeff:     -0.315D-01 0.492D+00 0.539D+00
 Gap=     0.264 Goal=   None    Shift=    0.000
 RMSDP=1.07D-04 MaxDP=2.86D-03 DE=-1.39D-04 OVMax= 7.78D-03

 Cycle   4  Pass 1  IDiag  1:
 E= -347.521866956074     Delta-E=       -0.000621310431 Rises=F Damp=F
 DIIS: error= 2.36D-04 at cycle   4 NSaved=   4.
 NSaved= 4 IEnMin= 4 EnMin= -347.521866956074     IErMin= 4 ErrMin= 2.36D-04
 ErrMax= 2.36D-04  0.00D+00 EMaxC= 1.00D-01 BMatC= 3.40D-05 BMatP= 7.65D-04
 IDIUse=3 WtCom= 9.98D-01 WtEn= 2.36D-03
 Coeff-Com: -0.186D-01 0.222D+00 0.287D+00 0.510D+00
 Coeff-En:   0.000D+00 0.000D+00 0.000D+00 0.100D+01
 Coeff:     -0.186D-01 0.221D+00 0.287D+00 0.511D+00
 Gap=     0.264 Goal=   None    Shift=    0.000
 RMSDP=2.07D-05 MaxDP=7.51D-04 DE=-6.21D-04 OVMax= 1.94D-03

 Cycle   5  Pass 1  IDiag  1:
 E= -347.521887221399     Delta-E=       -0.000020265326 Rises=F Damp=F
 DIIS: error= 9.84D-05 at cycle   5 NSaved=   5.
 NSaved= 5 IEnMin= 5 EnMin= -347.521887221399     IErMin= 5 ErrMin= 9.84D-05
 ErrMax= 9.84D-05  0.00D+00 EMaxC= 1.00D-01 BMatC= 5.39D-06 BMatP= 3.40D-05
 IDIUse=1 WtCom= 1.00D+00 WtEn= 0.00D+00
 Coeff-Com: -0.286D-02 0.183D-01 0.523D-01 0.301D+00 0.631D+00
 Coeff:     -0.286D-02 0.183D-01 0.523D-01 0.301D+00 0.631D+00
 Gap=     0.264 Goal=   None    Shift=    0.000
 RMSDP=6.80D-06 MaxDP=2.79D-04 DE=-2.03D-05 OVMax= 7.70D-04

 Cycle   6  Pass 1  IDiag  1:
 E= -347.521891306889     Delta-E=       -0.000004085490 Rises=F Damp=F
 DIIS: error= 4.29D-05 at cycle   6 NSaved=   6.
 NSaved= 6 IEnMin= 6 EnMin= -347.521891306889     IErMin= 6 ErrMin= 4.29D-05
 ErrMax= 4.29D-05  0.00D+00 EMaxC= 1.00D-01 BMatC= 4.65D-07 BMatP= 5.39D-06
 IDIUse=1 WtCom= 1.00D+00 WtEn= 0.00D+00
 Coeff-Com: -0.525D-03-0.352D-02 0.122D-01 0.136D+00 0.355D+00 0.501D+00
 Coeff:     -0.525D-03-0.352D-02 0.122D-01 0.136D+00 0.355D+00 0.501D+00
 Gap=     0.264 Goal=   None    Shift=    0.000
 RMSDP=2.14D-06 MaxDP=6.03D-05 DE=-4.09D-06 OVMax= 1.53D-04

 Cycle   7  Pass 1  IDiag  1:
 E= -347.521891605930     Delta-E=       -0.000000299041 Rises=F Damp=F
 DIIS: error= 9.64D-06 at cycle   7 NSaved=   7.
 NSaved= 7 IEnMin= 7 EnMin= -347.521891605930     IErMin= 7 ErrMin= 9.64D-06
 ErrMax= 9.64D-06  0.00D+00 EMaxC= 1.00D-01 BMatC= 2.11D-08 BMatP= 4.65D-07
 IDIUse=1 WtCom= 1.00D+00 WtEn= 0.00D+00
 Coeff-Com:  0.286D-03-0.538D-02-0.453D-02 0.347D-02 0.461D-01 0.186D+00
 Coeff-Com:  0.774D+00
 Coeff:      0.286D-03-0.538D-02-0.453D-02 0.347D-02 0.461D-01 0.186D+00
 Coeff:      0.774D+00
 Gap=     0.264 Goal=   None    Shift=    0.000
 RMSDP=6.89D-07 MaxDP=1.62D-05 DE=-2.99D-07 OVMax= 9.31D-05

 Cycle   8  Pass 1  IDiag  1:
 E= -347.521891626197     Delta-E=       -0.000000020266 Rises=F Damp=F
 DIIS: error= 2.04D-06 at cycle   8 NSaved=   8.
 NSaved= 8 IEnMin= 8 EnMin= -347.521891626197     IErMin= 8 ErrMin= 2.04D-06
 ErrMax= 2.04D-06  0.00D+00 EMaxC= 1.00D-01 BMatC= 1.48D-09 BMatP= 2.11D-08
 IDIUse=1 WtCom= 1.00D+00 WtEn= 0.00D+00
 Coeff-Com:  0.101D-03-0.113D-02-0.190D-02-0.856D-02-0.819D-02 0.184D-01
 Coeff-Com:  0.237D+00 0.764D+00
 Coeff:      0.101D-03-0.113D-02-0.190D-02-0.856D-02-0.819D-02 0.184D-01
 Coeff:      0.237D+00 0.764D+00
 Gap=     0.264 Goal=   None    Shift=    0.000
 RMSDP=2.22D-07 MaxDP=5.38D-06 DE=-2.03D-08 OVMax= 3.12D-05

 Cycle   9  Pass 1  IDiag  1:
 E= -347.521891628074     Delta-E=       -0.000000001878 Rises=F Damp=F
 DIIS: error= 9.73D-07 at cycle   9 NSaved=   9.
 NSaved= 9 IEnMin= 9 EnMin= -347.521891628074     IErMin= 9 ErrMin= 9.73D-07
 ErrMax= 9.73D-07  0.00D+00 EMaxC= 1.00D-01 BMatC= 2.96D-10 BMatP= 1.48D-09
 IDIUse=1 WtCom= 1.00D+00 WtEn= 0.00D+00
 Coeff-Com:  0.884D-05 0.301D-03-0.203D-03-0.477D-02-0.111D-01-0.204D-01
 Coeff-Com: -0.168D-01 0.336D+00 0.717D+00
 Coeff:      0.884D-05 0.301D-03-0.203D-03-0.477D-02-0.111D-01-0.204D-01
 Coeff:     -0.168D-01 0.336D+00 0.717D+00
 Gap=     0.264 Goal=   None    Shift=    0.000
 RMSDP=8.65D-08 MaxDP=2.14D-06 DE=-1.88D-09 OVMax= 1.06D-05

 Cycle  10  Pass 1  IDiag  1:
 E= -347.521891628410     Delta-E=       -0.000000000336 Rises=F Damp=F
 DIIS: error= 1.67D-07 at cycle  10 NSaved=  10.
 NSaved=10 IEnMin=10 EnMin= -347.521891628410     IErMin=10 ErrMin= 1.67D-07
 ErrMax= 1.67D-07  0.00D+00 EMaxC= 1.00D-01 BMatC= 1.91D-11 BMatP= 2.96D-10
 IDIUse=1 WtCom= 1.00D+00 WtEn= 0.00D+00
 Coeff-Com: -0.187D-05 0.185D-03 0.506D-04-0.123D-02-0.360D-02-0.811D-02
 Coeff-Com: -0.215D-01 0.859D-01 0.279D+00 0.669D+00
 Coeff:     -0.187D-05 0.185D-03 0.506D-04-0.123D-02-0.360D-02-0.811D-02
 Coeff:     -0.215D-01 0.859D-01 0.279D+00 0.669D+00
 Gap=     0.264 Goal=   None    Shift=    0.000
 RMSDP=1.87D-08 MaxDP=7.04D-07 DE=-3.36D-10 OVMax= 2.62D-06

 Cycle  11  Pass 1  IDiag  1:
 E= -347.521891628426     Delta-E=       -0.000000000015 Rises=F Damp=F
 DIIS: error= 7.75D-08 at cycle  11 NSaved=  11.
 NSaved=11 IEnMin=11 EnMin= -347.521891628426     IErMin=11 ErrMin= 7.75D-08
 ErrMax= 7.75D-08  0.00D+00 EMaxC= 1.00D-01 BMatC= 4.03D-12 BMatP= 1.91D-11
 IDIUse=1 WtCom= 1.00D+00 WtEn= 0.00D+00
 Coeff-Com: -0.314D-05 0.650D-04 0.598D-04-0.244D-04-0.529D-03-0.173D-02
 Coeff-Com: -0.100D-01-0.225D-02 0.442D-01 0.342D+00 0.629D+00
 Coeff:     -0.314D-05 0.650D-04 0.598D-04-0.244D-04-0.529D-03-0.173D-02
 Coeff:     -0.100D-01-0.225D-02 0.442D-01 0.342D+00 0.629D+00
 Gap=     0.264 Goal=   None    Shift=    0.000
 RMSDP=7.95D-09 MaxDP=2.15D-07 DE=-1.55D-11 OVMax= 8.71D-07

 Error on total polarization charges =  0.00820
 SCF Done:  E(RPBE1PBE) =  -347.521891628     A.U. after   11 cycles
            NFock= 11  Conv=0.79D-08     -V/T= 2.0042
 KE= 3.460837492578D+02 PE=-1.304660601709D+03 EE= 3.675073025782D+02
 Leave Link  502 at Thu Aug 29 20:28:46 2024, MaxMem=  8589934592 cpu:             120.5 elap:               6.8
 (Enter /share/apps/g16.b01_avx2/g16/l701.exe)
 ... and contract with generalized density number  0.
 Compute integral first derivatives.
 R6Disp: Adding Grimme-D3 dispersion energy 1st derivatives to the gradient.
   1 Symmetry operations used in ECPInt.
 ECPInt:  NShTT=    4095 NPrTT=   12396 LenC2=    4025 LenP2D=   10000.
 LDataN:  DoStor=T MaxTD1= 7 Len=  274
 D1PCM: PCM CHGder 1st derivatives, ID1Alg=3 FixD1E=F DoIter=F DoCFld=F I1PDM=0.
 GePol: Maximum number of non-zero 1st derivatives   =     231
 Leave Link  701 at Thu Aug 29 20:28:46 2024, MaxMem=  8589934592 cpu:              10.3 elap:               0.4
 (Enter /share/apps/g16.b01_avx2/g16/l702.exe)
 L702 exits ... SP integral derivatives will be done elsewhere.
 Leave Link  702 at Thu Aug 29 20:28:46 2024, MaxMem=  8589934592 cpu:               0.3 elap:               0.0
 (Enter /share/apps/g16.b01_avx2/g16/l703.exe)
 Integral derivatives from FoFJK, PRISM(SPDF).
 Compute integral first derivatives, UseDBF=F ICtDFT=           0.
 Calling FoFJK, ICntrl=      2127 FMM=F ISym2X=0 I1Cent= 0 IOpClX= 0 NMat=1 NMatS=1 NMatT=0.
 FoFJK:  IHMeth= 1 ICntrl=    2127 DoSepK=F KAlg= 0 I1Cent=           0 FoldK=F
 IRaf=         0 NMat=       1 IRICut=       1 DoRegI=T DoRafI=F ISym2E= 0 IDoP0=0 IntGTp=1.
 FoFCou: FMM=F IPFlag=           0 FMFlag=      100000 FMFlg1=         800
         NFxFlg=           0 DoJE=F BraDBF=F KetDBF=F FulRan=T
         wScrn=  0.000000 ICntrl=      2127 IOpCl=  0 I1Cent=           0 NGrid=           0
         NMat0=    1 NMatS0=      1 NMatT0=    0 NMatD0=    1 NMtDS0=    0 NMtDT0=    0
 Symmetry not used in FoFCou.
 Leave Link  703 at Thu Aug 29 20:28:48 2024, MaxMem=  8589934592 cpu:              54.2 elap:               2.3
 (Enter /share/apps/g16.b01_avx2/g16/l716.exe)
 Dipole        = 3.46734337D-01-1.43050678D+00-6.37762487D-01
 ***** Axes restored to original set *****
 -------------------------------------------------------------------
 Center     Atomic                   Forces (Hartrees/Bohr)
 Number     Number              X              Y              Z
 -------------------------------------------------------------------
      1        6           0.015364459   -0.009554830    0.011580122
      2        8          -0.002224420    0.000991900   -0.001668042
      3        7          -0.017888280   -0.003409685   -0.026630446
      4        1           0.004536091    0.001045532    0.007462580
      5        6           0.003898111   -0.002444886    0.012808480
      6        6          -0.000231657    0.008408863    0.008369869
      7        1          -0.000735522   -0.000146870   -0.001164057
      8        1           0.000589238   -0.000258920    0.000105690
      9        1          -0.000713014   -0.000925581    0.000906893
     10        9          -0.000222801    0.003124100   -0.009077762
     11        1          -0.000766600    0.002050639   -0.001448490
     12        1          -0.001605605    0.001119738   -0.001244836
 -------------------------------------------------------------------
 Cartesian Forces:  Max     0.026630446 RMS     0.007497031
 Leave Link  716 at Thu Aug 29 20:28:49 2024, MaxMem=  8589934592 cpu:               0.3 elap:               0.0
 (Enter /share/apps/g16.b01_avx2/g16/l103.exe)

 GradGradGradGradGradGradGradGradGradGradGradGradGradGradGradGradGradGrad
 Berny optimization.
 Using GEDIIS/GDIIS optimizer.
 FormGI is forming the generalized inverse of G from B-inverse, IUseBI=4.
 Internal  Forces:  Max     0.016119168 RMS     0.004002260
 Search for a local minimum.
 Step number   2 out of a maximum of   55
 All quantities printed in internal units (Hartrees-Bohrs-Radians)
 RMS Force = .40023D-02 SwitMx=.10000D-02 MixMth= 1
 Mixed Optimization -- RFO/linear search
 Update second derivatives using D2CorX and points    1    2
 DE= -1.69D-02 DEPred=-1.50D-02 R= 1.13D+00
 TightC=F SS=  1.41D+00  RLast= 3.34D-01 DXNew= 5.0454D-01 1.0011D+00
 Trust test= 1.13D+00 RLast= 3.34D-01 DXMaxT set to 5.05D-01
 ITU=  1  0
 Use linear search instead of GDIIS.
     Eigenvalues ---    0.00237   0.00461   0.00766   0.00767   0.02357
     Eigenvalues ---    0.07285   0.07324   0.07586   0.07664   0.12635
     Eigenvalues ---    0.15837   0.16000   0.16000   0.16000   0.16287
     Eigenvalues ---    0.21943   0.22676   0.24088   0.25029   0.28962
     Eigenvalues ---    0.31743   0.36255   0.37224   0.37230   0.37230
     Eigenvalues ---    0.37230   0.38553   0.47979   0.54099   0.84926
 RFO step:  Lambda=-4.79320695D-03 EMin= 2.36826920D-03
 Quartic linear search produced a step of  0.25724.
 Iteration  1 RMS(Cart)=  0.04966614 RMS(Int)=  0.00427519
 Iteration  2 RMS(Cart)=  0.00618307 RMS(Int)=  0.00310278
 Iteration  3 RMS(Cart)=  0.00001021 RMS(Int)=  0.00310277
 Iteration  4 RMS(Cart)=  0.00000005 RMS(Int)=  0.00310277
 ITry= 1 IFail=0 DXMaxC= 1.84D-01 DCOld= 1.00D+10 DXMaxT= 5.05D-01 DXLimC= 3.00D+00 Rises=F
 Variable       Old X    -DE/DX   Delta X   Delta X   Delta X     New X
                                 (Linear)    (Quad)   (Total)
    R1        2.29762   0.00034  -0.02069   0.01183  -0.00885   2.28877
    R2        2.62529  -0.01612  -0.03926  -0.03090  -0.07016   2.55513
    R3        2.86643   0.00266  -0.01125   0.01903   0.00778   2.87421
    R4        1.91676  -0.00050   0.00695  -0.00544   0.00152   1.91828
    R5        2.78041  -0.00830   0.00065  -0.02910  -0.02846   2.75196
    R6        2.59120   0.00953   0.01031   0.01554   0.02585   2.61705
    R7        2.06469   0.00038   0.01098  -0.00562   0.00536   2.07006
    R8        2.05804   0.00103   0.00927  -0.00237   0.00690   2.06493
    R9        2.06183   0.00120   0.01024  -0.00242   0.00783   2.06966
   R10        2.05635   0.00056   0.00884  -0.00368   0.00515   2.06150
   R11        2.05120   0.00144   0.00751   0.00010   0.00760   2.05880
    A1        2.13486   0.00671   0.01041   0.02717   0.03533   2.17018
    A2        2.11462   0.00051   0.00520   0.00026   0.00337   2.11799
    A3        2.03304  -0.00721  -0.01578  -0.02301  -0.04096   1.99209
    A4        1.90833   0.00188  -0.00059   0.08687   0.07462   1.98296
    A5        2.01359   0.00668   0.02648   0.04470   0.06100   2.07459
    A6        1.96478  -0.00121   0.01393   0.03728   0.03900   2.00379
    A7        1.89005   0.00066  -0.00530   0.00461  -0.00072   1.88933
    A8        1.93604   0.00310   0.00654   0.02032   0.02665   1.96269
    A9        1.88554   0.00181  -0.00646   0.02110   0.01437   1.89991
   A10        1.91027  -0.00235  -0.00009  -0.02111  -0.02117   1.88910
   A11        1.91659  -0.00193   0.00153  -0.01976  -0.01834   1.89824
   A12        1.92489  -0.00124   0.00367  -0.00484  -0.00158   1.92331
   A13        1.95083  -0.00072   0.01034  -0.01480  -0.00448   1.94635
   A14        1.89196   0.00081  -0.00480   0.01186   0.00705   1.89901
   A15        1.90685  -0.00050  -0.00097  -0.00397  -0.00500   1.90185
   A16        1.90866   0.00026  -0.00051   0.00412   0.00363   1.91229
   A17        1.90187   0.00021  -0.00225   0.00003  -0.00229   1.89958
   A18        1.90316  -0.00006  -0.00192   0.00315   0.00118   1.90435
    D1        2.67867   0.00188   0.01561  -0.01036   0.00685   2.68553
    D2        0.44336  -0.00357  -0.02064  -0.17439  -0.19797   0.24539
    D3       -0.50170   0.00227   0.00563   0.11852   0.12709  -0.37461
    D4       -2.73702  -0.00317  -0.03062  -0.04551  -0.07773  -2.81475
    D5       -1.58720   0.00026  -0.00422   0.05295   0.04816  -1.53904
    D6        2.59941   0.00086  -0.00478   0.06371   0.05859   2.65799
    D7        0.48772  -0.00066  -0.00923   0.04375   0.03389   0.52161
    D8        1.59269  -0.00028   0.00563  -0.07497  -0.06889   1.52381
    D9       -0.50388   0.00032   0.00507  -0.06422  -0.05846  -0.56235
   D10       -2.61557  -0.00120   0.00062  -0.08418  -0.08316  -2.69873
   D11        1.09837   0.00318   0.01316   0.08078   0.09500   1.19337
   D12       -3.07992   0.00360   0.01586   0.08452   0.10138  -2.97854
   D13       -1.00797   0.00371   0.01009   0.09293   0.10403  -0.90394
   D14       -1.10852  -0.00417  -0.01577  -0.11352  -0.13028  -1.23879
   D15        0.99638  -0.00376  -0.01307  -0.10978  -0.12390   0.87248
   D16        3.06834  -0.00364  -0.01884  -0.10137  -0.12125   2.94709
         Item               Value     Threshold  Converged?
 Maximum Force            0.016119     0.000450     NO 
 RMS     Force            0.004002     0.000300     NO 
 Maximum Displacement     0.183505     0.001800     NO 
 RMS     Displacement     0.049159     0.001200     NO 
 Predicted change in Energy=-4.390016D-03
 Lowest energy point so far.  Saving SCF results.
 GradGradGradGradGradGradGradGradGradGradGradGradGradGradGradGradGradGrad

 Leave Link  103 at Thu Aug 29 20:28:49 2024, MaxMem=  8589934592 cpu:               0.2 elap:               0.0
 (Enter /share/apps/g16.b01_avx2/g16/l202.exe)
                          Input orientation:                          
 ---------------------------------------------------------------------
 Center     Atomic      Atomic             Coordinates (Angstroms)
 Number     Number       Type             X           Y           Z
 ---------------------------------------------------------------------
      1          6           0        0.596058    0.745832    0.122174
      2          8           0       -0.039996   -0.280833    0.031010
      3          7           0        1.937752    0.800394    0.280611
      4          1           0        2.354010    1.657580   -0.069257
      5          6           0       -0.065974    2.104602   -0.047500
      6          6           0        2.723365   -0.402273    0.041584
      7          1           0        2.723782   -0.677750   -1.018421
      8          1           0        3.747360   -0.225131    0.373429
      9          1           0        2.298507   -1.223203    0.618227
     10          9           0       -0.042443    2.433586   -1.392534
     11          1           0        0.451578    2.894434    0.507717
     12          1           0       -1.106417    2.033745    0.278825
 ---------------------------------------------------------------------
                    Distance matrix (angstroms):
                    1          2          3          4          5
     1  C    0.000000
     2  O    1.211163   0.000000
     3  N    1.352118   2.267783   0.000000
     4  H    1.989554   3.082007   1.015109   0.000000
     5  C    1.520964   2.386868   2.413200   2.461022   0.000000
     6  C    2.418693   2.766049   1.456272   2.095639   3.751369
     7  H    2.802633   2.982837   2.119018   2.547824   4.057944
     8  H    3.307053   3.803211   2.082066   2.383693   4.488469
[...]
    D3       -0.09495  -0.00000   0.00000   0.00016   0.00016  -0.09479
    D4        3.07922   0.00000   0.00000   0.00001   0.00001   3.07922
    D5       -0.30057   0.00000   0.00000   0.00003   0.00003  -0.30054
    D6       -2.40430   0.00000   0.00000   0.00004   0.00004  -2.40427
    D7        1.77890  -0.00000   0.00000   0.00002   0.00002   1.77892
    D8        2.87539  -0.00000   0.00000  -0.00000  -0.00000   2.87538
    D9        0.77165   0.00000   0.00000   0.00001   0.00001   0.77166
   D10       -1.32833  -0.00000   0.00000  -0.00001  -0.00001  -1.32833
   D11        1.21678  -0.00000   0.00000  -0.00123  -0.00123   1.21554
   D12       -2.97115  -0.00000   0.00000  -0.00127  -0.00127  -2.97242
   D13       -0.88360  -0.00000   0.00000  -0.00125  -0.00125  -0.88485
   D14       -1.89243   0.00000   0.00000  -0.00139  -0.00139  -1.89382
   D15        0.20283   0.00000   0.00000  -0.00142  -0.00142   0.20141
   D16        2.29038  -0.00000   0.00000  -0.00140  -0.00140   2.28898
         Item               Value     Threshold  Converged?
 Maximum Force            0.000005     0.000450     YES
 RMS     Force            0.000002     0.000300     YES
 Maximum Displacement     0.001728     0.001800     YES
 RMS     Displacement     0.000555     0.001200     YES
 Predicted change in Energy=-1.575213D-09
 Optimization completed.
    -- Stationary point found.
                           ----------------------------
                           !   Optimized Parameters   !
                           ! (Angstroms and Degrees)  !
 --------------------------                            --------------------------
 ! Name  Definition              Value          Derivative Info.                !
 --------------------------------------------------------------------------------
 ! R1    R(1,2)                  1.2209         -DE/DX =    0.0                 !
 ! R2    R(1,3)                  1.3389         -DE/DX =    0.0                 !
 ! R3    R(1,5)                  1.5212         -DE/DX =    0.0                 !
 ! R4    R(3,4)                  1.0061         -DE/DX =    0.0                 !
 ! R5    R(3,6)                  1.444          -DE/DX =    0.0                 !
 ! R6    R(5,10)                 1.3737         -DE/DX =    0.0                 !
 ! R7    R(5,11)                 1.0932         -DE/DX =    0.0                 !
 ! R8    R(5,12)                 1.0944         -DE/DX =    0.0                 !
 ! R9    R(6,7)                  1.0929         -DE/DX =    0.0                 !
 ! R10   R(6,8)                  1.0881         -DE/DX =    0.0                 !
 ! R11   R(6,9)                  1.0911         -DE/DX =    0.0                 !
 ! A1    A(2,1,3)              123.745          -DE/DX =    0.0                 !
 ! A2    A(2,1,5)              121.997          -DE/DX =    0.0                 !
 ! A3    A(3,1,5)              114.2265         -DE/DX =    0.0                 !
 ! A4    A(1,3,4)              119.2945         -DE/DX =    0.0                 !
 ! A5    A(1,3,6)              121.9927         -DE/DX =    0.0                 !
 ! A6    A(4,3,6)              118.6872         -DE/DX =    0.0                 !
 ! A7    A(1,5,10)             110.0985         -DE/DX =    0.0                 !
 ! A8    A(1,5,11)             111.2153         -DE/DX =    0.0                 !
 ! A9    A(1,5,12)             109.1694         -DE/DX =    0.0                 !
 ! A10   A(10,5,11)            108.6893         -DE/DX =    0.0                 !
 ! A11   A(10,5,12)            108.6126         -DE/DX =    0.0                 !
 ! A12   A(11,5,12)            109.0077         -DE/DX =    0.0                 !
 ! A13   A(3,6,7)              111.3565         -DE/DX =    0.0                 !
 ! A14   A(3,6,8)              108.818          -DE/DX =    0.0                 !
 ! A15   A(3,6,9)              110.3601         -DE/DX =    0.0                 !
 ! A16   A(7,6,8)              108.9029         -DE/DX =    0.0                 !
 ! A17   A(7,6,9)              108.3238         -DE/DX =    0.0                 !
 ! A18   A(8,6,9)              109.0391         -DE/DX =    0.0                 !
 ! D1    D(2,1,3,4)            176.568          -DE/DX =    0.0                 !
 ! D2    D(2,1,3,6)             -1.5656         -DE/DX =    0.0                 !
 ! D3    D(5,1,3,4)             -5.4402         -DE/DX =    0.0                 !
 ! D4    D(5,1,3,6)            176.4262         -DE/DX =    0.0                 !
 ! D5    D(2,1,5,10)           -17.2215         -DE/DX =    0.0                 !
 ! D6    D(2,1,5,11)          -137.7565         -DE/DX =    0.0                 !
 ! D7    D(2,1,5,12)           101.9235         -DE/DX =    0.0                 !
 ! D8    D(3,1,5,10)           164.7475         -DE/DX =    0.0                 !
 ! D9    D(3,1,5,11)            44.2125         -DE/DX =    0.0                 !
 ! D10   D(3,1,5,12)           -76.1075         -DE/DX =    0.0                 !
 ! D11   D(1,3,6,7)             69.7163         -DE/DX =    0.0                 !
 ! D12   D(1,3,6,8)           -170.2344         -DE/DX =    0.0                 !
 ! D13   D(1,3,6,9)            -50.6264         -DE/DX =    0.0                 !
 ! D14   D(4,3,6,7)           -108.4283         -DE/DX =    0.0                 !
 ! D15   D(4,3,6,8)             11.6211         -DE/DX =    0.0                 !
 ! D16   D(4,3,6,9)            131.2291         -DE/DX =    0.0                 !
 --------------------------------------------------------------------------------
 GradGradGradGradGradGradGradGradGradGradGradGradGradGradGradGradGradGrad

 Leave Link  103 at Thu Aug 29 20:33:47 2024, MaxMem=  8589934592 cpu:               0.3 elap:               0.0
 (Enter /share/apps/g16.b01_avx2/g16/l9999.exe)

 ----------------------------------------------------------------------

 Electric dipole moment (input orientation):
 (Debye = 10**-18 statcoulomb cm , SI units = C m)
                  (au)            (Debye)         (10**-30 SI)
   Tot        0.271485D+01      0.690046D+01      0.230175D+02
   x          0.206906D+01      0.525902D+01      0.175422D+02
   y          0.109845D+01      0.279197D+01      0.931301D+01
   z          0.137217D+01      0.348770D+01      0.116337D+02

 Dipole polarizability, Alpha (input orientation).
 (esu units = cm**3 , SI units = C**2 m**2 J**-1)
 Alpha(0;0):
               (au)            (10**-24 esu)      (10**-40 SI)
   iso        0.585351D+02      0.867401D+01      0.965114D+01
   aniso      0.202541D+02      0.300135D+01      0.333945D+01
   xx         0.657291D+02      0.974005D+01      0.108373D+02
   yx        -0.287667D+01     -0.426279D+00     -0.474299D+00
   yy         0.603306D+02      0.894007D+01      0.994717D+01
   zx         0.679589D+01      0.100705D+01      0.112049D+01
   zy         0.379339D+01      0.562122D+00      0.625445D+00
   zz         0.495457D+02      0.734191D+01      0.816897D+01

 ----------------------------------------------------------------------

 Dipole orientation:
     6          0.90012542          1.32340673          1.28247620
     8          1.35932204          0.31731850         -0.74240786
     7          1.67923079          0.41528865          3.51183603
     1          1.31250296          1.39946006          5.09672366
     6         -0.70639926          3.69969233          1.47309344
     6          3.10089305         -1.90544059          3.71048625
     1          5.00616068         -1.68831023          2.94349565
     1          3.23708327         -2.43216558          5.69344123
     1          2.15424027         -3.41738118          2.67641951
     9         -0.87869823          4.84859884         -0.84839337
     1          0.10245113          5.04304163          2.81814752
     1         -2.60942173          3.18453430          2.09746555

 Electric dipole moment (dipole orientation):
 (Debye = 10**-18 statcoulomb cm , SI units = C m)
                  (au)            (Debye)         (10**-30 SI)
   Tot        0.271485D+01      0.690046D+01      0.230175D+02
   x          0.000000D+00      0.000000D+00      0.000000D+00
   y          0.000000D+00      0.000000D+00      0.000000D+00
   z          0.271485D+01      0.690046D+01      0.230175D+02

 Dipole polarizability, Alpha (dipole orientation).
 (esu units = cm**3 , SI units = C**2 m**2 J**-1)
 Alpha(0;0):
               (au)            (10**-24 esu)      (10**-40 SI)
   iso        0.585351D+02      0.867401D+01      0.965114D+01
   aniso      0.202541D+02      0.300135D+01      0.333945D+01
   xx         0.516488D+02      0.765357D+01      0.851574D+01
   yx        -0.859028D+01     -0.127295D+01     -0.141635D+01
   yy         0.582324D+02      0.862916D+01      0.960123D+01
   zx         0.301536D+01      0.446830D+00      0.497165D+00
   zy        -0.206416D+01     -0.305877D+00     -0.340335D+00
   zz         0.657241D+02      0.973930D+01      0.108364D+02

 ----------------------------------------------------------------------
 1\1\GINC-RIPPER-24-13\Freq\RPBE1PBE\def2TZVP\C3H6F1N1O1\HILLEL\29-Aug-
 2024\0\\#P Geom=AllCheck Guess=TCheck SCRF=Check GenChk RPBE1PBE/def2T
 ZVP Freq\\ch2F-methylacetamide product\\0,1\C,0.6663209286,0.801183497
 7,-0.3033591333\O,0.1079808078,-0.1566384096,-0.8147199316\N,1.9170678
 828,0.765760749,0.1731321681\H,2.3303862839,1.6090161523,0.5342107373\
 C,-0.0365058487,2.1368650688,-0.1132484259\C,2.7107826102,-0.440335523
 8,0.1497954219\H,2.9971446973,-0.7086657345,-0.8702278554\H,3.61186289
 07,-0.2789509939,0.7380107107\H,2.1499590386,-1.2722079631,0.578725697
 6\F,-1.1532912466,2.2003530027,-0.9106596179\H,0.6232260998,2.97074611
 45,-0.3673290845\H,-0.3473522044,2.2338565899,0.9315345932\\Version=ES
 64L-G16RevB.01\State=1-A\HF=-347.5320131\RMSD=2.042e-09\RMSF=4.858e-06
 \ZeroPoint=0.0952217\Thermal=0.1023534\Dipole=2.0690569,1.0984453,1.37
 21655\DipoleDeriv=1.9545067,0.0004822,0.6197712,0.4029351,1.2065328,0.
 508085,0.732151,0.3451898,0.653016,-1.0759277,-0.1202318,-0.2609442,-0
 .5608456,-1.163494,-0.4385887,-0.3639942,-0.2683709,-0.7205898,-1.3792
 018,0.0994915,-0.2912436,0.1442961,-0.5605165,-0.0034196,-0.3693393,0.
 0042796,-0.6197719,0.2214095,0.0664245,-0.0364505,0.0807203,0.1679761,
 -0.0135844,-0.0150728,-0.0042773,0.3459718,0.875885,-0.0054783,0.32555
 49,0.0322284,0.1613253,-0.1219265,0.4105298,-0.2332209,0.6187185,0.358
 0178,-0.1926263,-0.0437564,-0.2742842,0.4878435,-0.014464,-0.0136927,0
 .0034543,0.2814114,0.0234947,0.05494,0.0170669,0.1084523,0.0104576,0.0
 071519,0.1013716,-0.0751094,-0.1164796,-0.0490318,0.024117,-0.0843144,
 -0.0240026,0.0548963,-0.0482012,-0.1088387,-0.0224262,0.0475528,-0.001
 6723,-0.085908,0.0723446,0.0345067,-0.0671361,0.0672467,0.0409689,0.06
 61265,0.0560462,-0.8710328,0.1474733,-0.3488526,0.0927916,-0.3293869,0
 .0335775,-0.4094966,0.0993637,-0.5394186,-0.0487158,-0.0514359,-0.0237
 273,-0.0642861,-0.0258801,0.0132293,0.015813,0.0810764,0.0658697,-0.00
 77315,0.0627519,0.0545514,0.0274882,0.057382,0.0108939,-0.0204,0.00391
 44,-0.0723266\Polar=65.729116,-2.8766699,60.3305776,6.7958916,3.793387
 1,49.5456542\Quadrupole=0.2763104,-0.0334054,-0.2429051,-0.651458,-0.8
 56901,0.1443966\PG=C01 [X(C3H6F1N1O1)]\NImag=0\\0.68605095,0.08248045,
 0.77097961,0.20308822,0.20085652,0.36713079,-0.20157057,-0.19014145,-0
 .10551298,0.24118077,-0.17569322,-0.45644619,-0.18511808,0.24031492,0.
 49906958,-0.10242449,-0.19049385,-0.17703358,0.15515388,0.23748911,0.1
 6981521,-0.32531959,0.04657576,-0.09085454,-0.05472252,-0.05253490,-0.
 04453477,0.68610645,0.03125593,-0.13922828,-0.00987478,-0.05788943,-0.
 00210983,-0.02947573,0.01580711,0.74062707,-0.09267038,-0.00197547,-0.
 09251079,-0.04727689,-0.02899936,-0.00571192,0.23374345,0.18159691,0.2
 0140791,-0.00620247,-0.03306147,-0.00714414,-0.00567113,0.00243076,-0.
 00494509,-0.12839730,-0.12843006,-0.07906259,0.13316115,-0.00312999,0.
 00419825,0.00247052,0.00437959,0.00389101,0.00052029,-0.12901243,-0.34
 120372,-0.13207515,0.13558666,0.35025580,-0.00186479,-0.00957518,-0.01
 243087,-0.00467585,-0.00009604,0.00714847,-0.07807810,-0.13123511,-0.0
 6176822,0.08023091,0.13452591,0.07032572,-0.10795578,0.04989672,0.0162
 9393,0.01303420,-0.01856328,-0.01207046,-0.01838310,0.02875119,-0.0005
 4340,-0.00194202,0.00092904,0.00026080,0.52742651,0.03723153,-0.152405
 57,-0.00850180,0.00227547,-0.04347882,-0.02134884,0.01082001,0.0032744
 9,0.00046669,0.00051425,0.00067669,-0.00091542,0.05574696,0.51638266,0
 .00873678,0.00145737,-0.08481659,-0.00495784,-0.02759363,0.00758045,-0
 .00673519,0.00760518,0.01109022,0.00024145,-0.00000855,-0.00028867,-0.
 02564532,-0.01154176,0.54636930,-0.03129186,0.03206018,-0.00403980,0.0
 0605864,0.00353791,0.00509552,-0.13503314,0.06813725,-0.01006770,0.009
 57103,-0.01118576,0.00266481,-0.00164990,-0.00323743,-0.00400112,0.576
 94774,0.02083074,0.00337768,0.00861313,-0.00801241,-0.00410057,-0.0027
 7773,0.05932281,-0.20476707,-0.01851440,0.01716173,-0.01486653,0.00408
 872,-0.00044918,0.00041034,-0.00096405,0.04716891,0.52570422,-0.008403
 24,0.01079055,0.00116610,0.00194792,0.00413219,-0.00407337,-0.01098823
 ,-0.01453974,-0.06498279,0.00898422,-0.00625352,-0.00282850,-0.0037478
 3,-0.00113048,0.00402907,0.01809508,0.00712452,0.57386729,0.00389237,0
 .00312685,0.00314659,-0.00025197,-0.00275273,-0.00074701,-0.01017293,0
 .01230877,0.01512957,-0.00134141,0.00012610,0.00086002,0.00052537,0.00
 008595,-0.00054436,-0.06297594,0.01204313,0.05881468,0.06605467,-0.005
 55611,-0.00150646,-0.00281057,0.00212829,0.00215599,0.00095078,0.01598
 461,-0.01766377,-0.02631071,0.00262190,-0.00108231,-0.00151890,-0.0006
 0621,-0.00002581,0.00040660,0.01184238,-0.05732273,-0.05002284,-0.0223
 9436,0.07064086,-0.00275315,-0.00035282,0.00007424,0.00079868,0.000682
 15,0.00021705,0.00179579,-0.00485924,0.00882817,0.00070277,0.00063639,
 -0.00048988,0.00028243,0.00018589,-0.00063174,0.06109663,-0.05345130,-
 0.28542830,-0.06863621,0.06151119,0.30295544,0.00119768,0.00336597,0.0
 0076013,-0.00017636,0.00010405,-0.00022915,-0.01895412,-0.00222222,-0.
 00956621,0.00087249,-0.00027348,0.00028342,-0.00020565,-0.00056957,-0.
 00022029,-0.23528091,-0.03412061,-0.12341202,0.00858267,0.00087049,0.0
 0476419,0.25592928,-0.00083765,-0.00716231,-0.00153972,-0.00091309,0.0
 0236554,0.00021934,0.03421233,-0.00028440,0.01892030,0.00011916,0.0017
 6146,0.00028631,0.00073698,0.00073193,-0.00011120,-0.04491409,-0.05663
 455,-0.02961182,-0.00560197,-0.00114192,-0.00202220,0.03400580,0.06279
 150,0.00118754,-0.00028189,0.00026789,-0.00020723,-0.00001108,0.000215
 46,0.00323513,-0.00022609,0.00042866,0.00006709,0.00025426,0.00101970,
 -0.00000576,-0.00004922,0.00028153,-0.12784494,-0.02392039,-0.13081931
 ,-0.02476754,-0.00490295,-0.01405203,0.13643572,0.02804438,0.13465504,
 0.00253013,0.00215590,-0.00002808,-0.00035285,-0.00115027,-0.00019610,
 0.01073282,0.02025896,-0.00947198,-0.00120340,0.00209353,-0.00079248,-
 0.00025477,-0.00012643,0.00129074,-0.12669084,-0.11145543,0.05980405,-
 0.00384265,-0.00536675,0.00181070,-0.01133693,-0.01753946,0.01189448,0
 .13067292,-0.00611212,-0.00155321,-0.00337837,0.00146425,0.00263934,0.
 00144348,-0.00541092,-0.03178495,0.00759800,0.00204478,-0.00233892,0.0
 0335878,-0.00004358,-0.00032867,-0.00058692,-0.10494108,-0.19326557,0.
 07909205,0.00287476,0.00621118,-0.00232552,-0.00164585,-0.00186669,0.0
 0106888,0.11118068,0.22219796,0.00120948,0.00191577,0.00148656,0.00030
 431,-0.00153565,-0.00066818,-0.00459633,-0.00228305,0.00238483,0.00047
 196,-0.00077001,-0.00037847,-0.00004628,-0.00007455,0.00010938,0.05856
 046,0.08138450,-0.09103446,0.01703322,0.02227797,-0.01158092,-0.008617
 91,-0.01444665,0.00802261,-0.06423736,-0.08651182,0.09176281,-0.031557
 44,-0.00371124,-0.02525522,0.00376730,-0.00081815,0.00325831,-0.004182
 23,0.01080008,0.00095753,0.00171706,-0.00019264,0.00070046,-0.20045642
 ,0.00351137,-0.10006740,-0.00051757,-0.00238765,-0.00058337,-0.0003815
 5,0.00049447,0.00009982,-0.00057939,0.00068574,0.00003688,-0.00003171,
 0.00036178,-0.00002875,0.26698065,0.02884876,-0.00234670,0.02027433,0.
 00396495,0.00428309,0.00340502,0.00346790,-0.00740840,-0.00127997,-0.0
 0015521,-0.00029373,0.00031576,-0.00427132,-0.06323567,0.00092913,0.00
 112690,0.00153297,-0.00001523,0.00024092,-0.00031147,-0.00004440,0.000
 40547,-0.00040814,-0.00003974,-0.00009268,-0.00000316,0.00002099,-0.01
 174604,0.05710217,-0.00833031,-0.00370854,-0.00367012,0.00391838,0.001
 62711,0.00270735,-0.00163817,0.00327863,0.00052463,0.00085711,0.000004
 43,-0.00016769,-0.10089037,0.00422359,-0.13643236,-0.00000180,-0.00127
 842,0.00024625,-0.00026594,0.00035577,0.00007211,-0.00020349,0.0002684
 4,0.00000371,-0.00004835,0.00016938,-0.00004944,0.15685236,-0.00457940
 ,0.15921277,0.01208279,0.00922583,-0.00386254,-0.00141668,0.00349090,0
 .00256752,-0.00103912,0.00007808,0.00015034,-0.00015239,0.00050248,0.0
 0019136,-0.13365442,-0.11398994,0.03939682,0.00063188,-0.00018545,-0.0
 0035008,-0.00000230,-0.00007545,0.00000712,-0.00001333,-0.00002863,0.0
 0001053,-0.00002554,0.00015288,0.00000340,-0.03316050,-0.01997892,-0.0
 0701980,0.15983411,-0.02009933,-0.01749467,0.00861748,0.00340106,-0.00
 474105,-0.00272581,0.00091008,0.00125460,-0.00093782,0.00091452,-0.000
 96826,0.00097135,-0.11982634,-0.21000699,0.05593498,0.00057003,0.00024
 119,-0.00066671,0.00007116,-0.00007751,0.00011990,0.00001954,0.0000224
 5,-0.00000644,-0.00020266,0.00016281,-0.00000589,0.00216818,0.00753984
 ,-0.00283883,0.12941362,0.22013966,-0.00140076,-0.00736630,0.00300711,
 0.00018161,-0.00090202,-0.00054567,-0.00071272,0.00061137,-0.00009421,
 -0.00050918,0.00061083,0.00026093,0.04564690,0.05919603,-0.06845214,0.
 00019320,0.00000478,-0.00060076,0.00008712,-0.00009193,0.00003906,-0.0
 0001807,0.00004262,-0.00000975,-0.00006620,0.00005100,-0.00000947,-0.0
 2487710,-0.01841083,0.00231492,-0.03515194,-0.05700781,0.06939544,-0.0
 0185622,-0.00197350,0.01340842,0.00012116,0.00163400,-0.00092814,-0.00
 063523,0.00114434,-0.00132175,-0.00041161,0.00017689,0.00021944,-0.076
 48403,0.00773783,0.09250574,0.00023088,0.00008342,-0.00016118,-0.00008
 633,0.00005675,0.00003124,-0.00003543,0.00007488,-0.00004190,-0.000197
 19,0.00007442,-0.00005621,-0.00159821,-0.00181073,-0.04322962,-0.00308
 450,0.00266013,0.01662715,0.08403671,0.01078101,-0.00041216,-0.0296086
 5,-0.00097216,-0.00352811,0.00279394,-0.00014236,-0.00070576,0.0015109
 9,0.00025299,-0.00002975,-0.00020619,0.00769901,-0.05199458,-0.0255271
 6,-0.00016520,-0.00030938,0.00110103,-0.00012858,0.00012395,-0.0000800
 3,0.00006040,-0.00017487,0.00007028,0.00024461,-0.00007013,0.00002840,
 0.00083410,0.00354919,0.00247784,-0.00860539,0.00392793,0.02326226,-0.
 00985844,0.04962367,0.00362511,-0.00126616,-0.00267075,0.00032601,0.00
 032530,0.00034872,-0.00063633,-0.00059834,0.00040352,0.00010549,0.0000
 8460,-0.00040250,0.08046535,-0.02051011,-0.27883844,0.00024967,-0.0003
 0937,0.00045878,-0.00011012,0.00015559,-0.00000319,0.00002368,-0.00004
 980,-0.00001349,0.00004057,0.00002105,-0.00004524,-0.01109351,-0.00057
 566,-0.02476212,0.00405728,-0.00145439,-0.00530546,-0.07705320,0.02417
 728,0.31083017\\-0.00000013,-0.00000299,0.00000025,-0.00000157,-0.0000
 0097,-0.00000174,0.00000085,-0.00000104,-0.00000350,-0.00000096,0.0000
 0156,0.00000172,-0.00000932,-0.00000230,0.00000195,0.00000579,0.000004
 93,-0.00000377,0.00000296,0.00000863,-0.00000631,0.00000520,0.00000395
 ,-0.00000623,0.00000635,0.00000098,-0.00000775,-0.00000108,-0.00000464
 ,0.00001062,-0.00000571,-0.00000055,0.00000746,-0.00000238,-0.00000756
 ,0.00000730\\\@


 Until you make peace with who you are,
 you'll never be content with what you have.
                           -- Doris Mortman
 Job cpu time:       0 days  0 hours 28 minutes 10.8 seconds.
 Elapsed time:       0 days  0 hours  1 minutes 10.8 seconds.
 File lengths (MBytes):  RWF=     82 Int=      0 D2E=      0 Chk=      9 Scr=      1
 Normal termination of Gaussian 16 at Thu Aug 29 20:33:47 2024.
