 Entering Gaussian System, Link 0=g16
 Input=input.com
 Output=input.log
 Initial command:
 /share/apps/g16.b01_avx2/g16/l1.exe "/scratch/Gau-1633338.inp" -scrdir="/scratch/"
 Entering Link 1 = /share/apps/g16.b01_avx2/g16/l1.exe PID=   1633340.
  
 Copyright (c) 1988-2017, Gaussian, Inc.  All Rights Reserved.
  
 This is part of the Gaussian(R) 16 program.  It is based on
 the Gaussian(R) 09 system (copyright 2009, Gaussian, Inc.),
 the Gaussian(R) 03 system (copyright 2003, Gaussian, Inc.),
 the Gaussian(R) 98 system (copyright 1998, Gaussian, Inc.),
 the Gaussian(R) 94 system (copyright 1995, Gaussian, Inc.),
 the Gaussian 92(TM) system (copyright 1992, Gaussian, Inc.),
 the Gaussian 90(TM) system (copyright 1990, Gaussian, Inc.),
 the Gaussian 88(TM) system (copyright 1988, Gaussian, Inc.),
 the Gaussian 86(TM) system (copyright 1986, Carnegie Mellon
 University), and the Gaussian 82(TM) system (copyright 1983,
 Carnegie Mellon University). Gaussian is a federally registered
 trademark of Gaussian, Inc.
  
 This software contains proprietary and confidential information,
 including trade secrets, belonging to Gaussian, Inc.
  
 This software is provided under written license and may be
 used, copied, transmitted, or stored only in accord with that
 written license.
  
 The following legend is applicable only to US Government
 contracts under FAR:
  
                    RESTRICTED RIGHTS LEGEND
  
 Use, reproduction and disclosure by the US Government is
 subject to restrictions as set forth in subparagraphs (a)
 and (c) of the Commercial Computer Software - Restricted
 Rights clause in FAR 52.227-19.
  
 Gaussian, Inc.
 340 Quinnipiac St., Bldg. 40, Wallingford CT 06492
  
  
 ---------------------------------------------------------------
 Warning -- This program may not be used in any manner that
 competes with the business of Gaussian, Inc. or will provide
 assistance to any competitor of Gaussian, Inc.  The licensee
 of this program is prohibited from giving any competitor of
 Gaussian, Inc. access to this program.  By using this program,
 the user acknowledges that Gaussian, Inc. is engaged in the
 business of creating and licensing software in the field of
 computational chemistry and represents and warrants to the
 licensee that it is not a competitor of Gaussian, Inc. and that
 it will not use this program in any manner prohibited above.
 ---------------------------------------------------------------
  

 Cite this work as:
 Gaussian 16, Revision B.01,
 M. J. Frisch, G. W. Trucks, H. B. Schlegel, G. E. Scuseria, 
 M. A. Robb, J. R. Cheeseman, G. Scalmani, V. Barone, 
 G. A. Petersson, H. Nakatsuji, X. Li, M. Caricato, A. V. Marenich, 
 J. Bloino, B. G. Janesko, R. Gomperts, B. Mennucci, H. P. Hratchian, 
 J. V. Ortiz, A. F. Izmaylov, J. L. Sonnenberg, D. Williams-Young, 
 F. Ding, F. Lipparini, F. Egidi, J. Goings, B. Peng, A. Petrone, 
 T. Henderson, D. Ranasinghe, V. G. Zakrzewski, J. Gao, N. Rega, 
 G. Zheng, W. Liang, M. Hada, M. Ehara, K. Toyota, R. Fukuda, 
 J. Hasegawa, M. Ishida, T. Nakajima, Y. Honda, O. Kitao, H. Nakai, 
 T. Vreven, K. Throssell, J. A. Montgomery, Jr., J. E. Peralta, 
 F. Ogliaro, M. J. Bearpark, J. J. Heyd, E. N. Brothers, K. N. Kudin, 
 V. N. Staroverov, T. A. Keith, R. Kobayashi, J. Normand, 
 K. Raghavachari, A. P. Rendell, J. C. Burant, S. S. Iyengar, 
 J. Tomasi, M. Cossi, J. M. Millam, M. Klene, C. Adamo, R. Cammi, 
 J. W. Ochterski, R. L. Martin, K. Morokuma, O. Farkas, 
 J. B. Foresman, and D. J. Fox, Gaussian, Inc., Wallingford CT, 2016.
 
 ******************************************
 Gaussian 16:  ES64L-G16RevB.01 20-Dec-2017
                15-Jul-2024 
 ******************************************
 %nproc=16
 Will use up to   16 processors via shared memory.
 %mem=60GB
 ----------------------------------------------------------------------
 #P PBE1PBE/def2TZVP opt=(calcfc, ts, noeigentest) freq EmpiricalDisper
 sion=GD3 Int=(grid=99590) scrf=(iefpcm, solvent=water)
 ----------------------------------------------------------------------
 1/5=1,10=4,11=1,18=20,26=6,38=1/1,3;
 2/9=110,12=2,17=6,18=5,40=1/2;
 3/5=44,7=101,11=2,25=1,30=1,70=2201,71=2,72=1,74=-13,75=99590,124=31,140=1/1,2,3;
 4//1;
 5/5=2,38=5,53=1/2;
 8/6=4,10=90,11=11/1;
 11/6=1,8=1,9=11,15=111,16=1/1,2,10;
 10/6=1,13=1/2;
 6/7=2,8=2,9=2,10=2,28=1/1;
 7/10=1,18=20,25=1/1,2,3,16;
 1/5=1,10=4,11=1,18=20,26=6/3(2);
 2/9=110/2;
 99//99;
 2/9=110/2;
 3/5=44,7=101,11=2,25=1,30=1,70=2205,71=1,72=1,74=-13,75=99590,124=31/1,2,3;
 4/5=5,16=3,69=1/1;
 5/5=2,38=5,53=1/2;
 7//1,2,3,16;
 1/5=1,11=1,18=20,26=6/3(-5);
 2/9=110/2;
 6/7=2,8=2,9=2,10=2,19=2,28=1/1;
 99/9=1/99;
 Leave Link    1 at Mon Jul 15 23:53:57 2024, MaxMem=  8053063680 cpu:               0.4 elap:               0.0
 (Enter /share/apps/g16.b01_avx2/g16/l101.exe)
 ----------------
 tfp-pyridine_ts1
 ----------------
 Symbolic Z-matrix:
 Charge =  0 Multiplicity = 1
 H                    -2.25354   1.59791   0.22679 
 O                    -1.73885  -0.62558   1.0766 
 C                    -2.08097  -0.70975  -0.13148 
 N                    -3.047     1.02688   0.01621 
 H                    -3.43898   1.31054  -0.85894 
 C                    -4.05432   1.17761   1.07615 
 H                    -4.90333   0.56661   0.85083 
 H                    -3.6349    0.8741    2.01256 
 H                    -4.35797   2.20184   1.13658 
 C                    -3.46111  -1.2833   -0.50274 
 H                    -3.38306  -2.34199  -0.63684 
 H                    -4.15739  -1.07358   0.28219 
 H                    -3.80182  -0.83283  -1.41153 
 O                    -1.18817  -0.27283  -1.15954 
 C                     0.01864   0.21478  -0.56731 
 C                     0.14424   1.55955  -0.21594 
 C                     1.09153  -0.64576  -0.33054 
 C                     1.33836   2.0104    0.36298 
 C                     2.26249  -0.14101   0.25118 
 N                     2.35477   1.15868   0.57913 
 F                     3.30505  -0.96656   0.48365 
 F                     1.0023   -1.9522   -0.65877 
 F                    -0.87497   2.41813  -0.43166 
 F                     1.46822   3.30966   0.70587 
 
 Add virtual bond connecting atoms H12        and H7         Dist= 3.57D+00.
 Add virtual bond connecting atoms F23        and H1         Dist= 3.28D+00.
 ITRead=  0  0  0  0  0  0  0  0  0  0  0  0  0  0  0  0  0  0  0  0
 ITRead=  0  0  0  0
 MicOpt= -1 -1 -1 -1 -1 -1 -1 -1 -1 -1 -1 -1 -1 -1 -1 -1 -1 -1 -1 -1
 MicOpt= -1 -1 -1 -1
 NAtoms=     24 NQM=       24 NQMF=       0 NMMI=      0 NMMIF=      0
                NMic=       0 NMicF=      0.
                    Isotopes and Nuclear Properties:
 (Nuclear quadrupole moments (NQMom) in fm**2, nuclear magnetic moments (NMagM)
  in nuclear magnetons)

  Atom         1           2           3           4           5           6           7           8           9          10
 IAtWgt=           1          16          12          14           1          12           1           1           1          12
 AtmWgt=   1.0078250  15.9949146  12.0000000  14.0030740   1.0078250  12.0000000   1.0078250   1.0078250   1.0078250  12.0000000
 NucSpn=           1           0           0           2           1           0           1           1           1           0
 AtZEff=  -0.0000000  -0.0000000  -0.0000000  -0.0000000  -0.0000000  -0.0000000  -0.0000000  -0.0000000  -0.0000000  -0.0000000
 NQMom=    0.0000000   0.0000000   0.0000000   2.0440000   0.0000000   0.0000000   0.0000000   0.0000000   0.0000000   0.0000000
 NMagM=    2.7928460   0.0000000   0.0000000   0.4037610   2.7928460   0.0000000   2.7928460   2.7928460   2.7928460   0.0000000
 AtZNuc=   1.0000000   8.0000000   6.0000000   7.0000000   1.0000000   6.0000000   1.0000000   1.0000000   1.0000000   6.0000000

  Atom        11          12          13          14          15          16          17          18          19          20
 IAtWgt=           1           1           1          16          12          12          12          12          12          14
 AtmWgt=   1.0078250   1.0078250   1.0078250  15.9949146  12.0000000  12.0000000  12.0000000  12.0000000  12.0000000  14.0030740
 NucSpn=           1           1           1           0           0           0           0           0           0           2
 AtZEff=  -0.0000000  -0.0000000  -0.0000000  -0.0000000  -0.0000000  -0.0000000  -0.0000000  -0.0000000  -0.0000000  -0.0000000
 NQMom=    0.0000000   0.0000000   0.0000000   0.0000000   0.0000000   0.0000000   0.0000000   0.0000000   0.0000000   2.0440000
 NMagM=    2.7928460   2.7928460   2.7928460   0.0000000   0.0000000   0.0000000   0.0000000   0.0000000   0.0000000   0.4037610
 AtZNuc=   1.0000000   1.0000000   1.0000000   8.0000000   6.0000000   6.0000000   6.0000000   6.0000000   6.0000000   7.0000000

  Atom        21          22          23          24
 IAtWgt=          19          19          19          19
 AtmWgt=  18.9984032  18.9984032  18.9984032  18.9984032
 NucSpn=           1           1           1           1
 AtZEff=  -0.0000000  -0.0000000  -0.0000000  -0.0000000
 NQMom=    0.0000000   0.0000000   0.0000000   0.0000000
 NMagM=    2.6288670   2.6288670   2.6288670   2.6288670
 AtZNuc=   9.0000000   9.0000000   9.0000000   9.0000000
 Leave Link  101 at Mon Jul 15 23:53:57 2024, MaxMem=  8053063680 cpu:               5.5 elap:               0.3
 (Enter /share/apps/g16.b01_avx2/g16/l103.exe)

 GradGradGradGradGradGradGradGradGradGradGradGradGradGradGradGradGradGrad
 Berny optimization.
 Initialization pass.
                           ----------------------------
                           !    Initial Parameters    !
                           ! (Angstroms and Degrees)  !
 --------------------------                            --------------------------
 ! Name  Definition              Value          Derivative Info.                !
 --------------------------------------------------------------------------------
 ! R1    R(1,4)                  1.0            calculate D2E/DX2 analytically  !
 ! R2    R(1,23)                 1.734          calculate D2E/DX2 analytically  !
 ! R3    R(2,3)                  1.2584         calculate D2E/DX2 analytically  !
 ! R4    R(3,10)                 1.54           calculate D2E/DX2 analytically  !
 ! R5    R(3,14)                 1.43           calculate D2E/DX2 analytically  !
 ! R6    R(4,5)                  1.0            calculate D2E/DX2 analytically  !
 ! R7    R(4,6)                  1.47           calculate D2E/DX2 analytically  !
 ! R8    R(6,7)                  1.07           calculate D2E/DX2 analytically  !
 ! R9    R(6,8)                  1.07           calculate D2E/DX2 analytically  !
 ! R10   R(6,9)                  1.07           calculate D2E/DX2 analytically  !
 ! R11   R(7,12)                 1.8894         calculate D2E/DX2 analytically  !
 ! R12   R(10,11)                1.07           calculate D2E/DX2 analytically  !
 ! R13   R(10,12)                1.07           calculate D2E/DX2 analytically  !
 ! R14   R(10,13)                1.07           calculate D2E/DX2 analytically  !
 ! R15   R(14,15)                1.43           calculate D2E/DX2 analytically  !
 ! R16   R(15,16)                1.3956         calculate D2E/DX2 analytically  !
 ! R17   R(15,17)                1.3956         calculate D2E/DX2 analytically  !
 ! R18   R(16,18)                1.4015         calculate D2E/DX2 analytically  !
 ! R19   R(16,23)                1.35           calculate D2E/DX2 analytically  !
 ! R20   R(17,19)                1.4015         calculate D2E/DX2 analytically  !
 ! R21   R(17,22)                1.35           calculate D2E/DX2 analytically  !
 ! R22   R(18,20)                1.3436         calculate D2E/DX2 analytically  !
 ! R23   R(18,24)                1.35           calculate D2E/DX2 analytically  !
 ! R24   R(19,20)                1.3436         calculate D2E/DX2 analytically  !
 ! R25   R(19,21)                1.35           calculate D2E/DX2 analytically  !
 ! A1    A(4,1,23)             145.1814         calculate D2E/DX2 analytically  !
 ! A2    A(2,3,10)             120.0            calculate D2E/DX2 analytically  !
 ! A3    A(2,3,14)             120.0            calculate D2E/DX2 analytically  !
 ! A4    A(10,3,14)            120.0            calculate D2E/DX2 analytically  !
 ! A5    A(1,4,5)              109.4712         calculate D2E/DX2 analytically  !
 ! A6    A(1,4,6)              109.4712         calculate D2E/DX2 analytically  !
 ! A7    A(5,4,6)              109.4712         calculate D2E/DX2 analytically  !
 ! A8    A(4,6,7)              109.4712         calculate D2E/DX2 analytically  !
 ! A9    A(4,6,8)              109.4712         calculate D2E/DX2 analytically  !
 ! A10   A(4,6,9)              109.4712         calculate D2E/DX2 analytically  !
 ! A11   A(7,6,8)              109.4712         calculate D2E/DX2 analytically  !
 ! A12   A(7,6,9)              109.4712         calculate D2E/DX2 analytically  !
 ! A13   A(8,6,9)              109.4712         calculate D2E/DX2 analytically  !
 ! A14   A(6,7,12)             104.2306         calculate D2E/DX2 analytically  !
 ! A15   A(3,10,11)            109.4712         calculate D2E/DX2 analytically  !
 ! A16   A(3,10,12)            109.4712         calculate D2E/DX2 analytically  !
 ! A17   A(3,10,13)            109.4712         calculate D2E/DX2 analytically  !
 ! A18   A(11,10,12)           109.4712         calculate D2E/DX2 analytically  !
 ! A19   A(11,10,13)           109.4712         calculate D2E/DX2 analytically  !
 ! A20   A(12,10,13)           109.4712         calculate D2E/DX2 analytically  !
 ! A21   A(7,12,10)            130.3776         calculate D2E/DX2 analytically  !
 ! A22   A(3,14,15)            109.4712         calculate D2E/DX2 analytically  !
 ! A23   A(14,15,16)           120.5834         calculate D2E/DX2 analytically  !
 ! A24   A(14,15,17)           120.5834         calculate D2E/DX2 analytically  !
 ! A25   A(16,15,17)           118.8332         calculate D2E/DX2 analytically  !
 ! A26   A(15,16,18)           119.383          calculate D2E/DX2 analytically  !
 ! A27   A(15,16,23)           120.3085         calculate D2E/DX2 analytically  !
 ! A28   A(18,16,23)           120.3085         calculate D2E/DX2 analytically  !
 ! A29   A(15,17,19)           119.383          calculate D2E/DX2 analytically  !
 ! A30   A(15,17,22)           120.3085         calculate D2E/DX2 analytically  !
 ! A31   A(19,17,22)           120.3085         calculate D2E/DX2 analytically  !
 ! A32   A(16,18,20)           120.468          calculate D2E/DX2 analytically  !
 ! A33   A(16,18,24)           119.766          calculate D2E/DX2 analytically  !
 ! A34   A(20,18,24)           119.766          calculate D2E/DX2 analytically  !
 ! A35   A(17,19,20)           120.468          calculate D2E/DX2 analytically  !
 ! A36   A(17,19,21)           119.766          calculate D2E/DX2 analytically  !
 ! A37   A(20,19,21)           119.766          calculate D2E/DX2 analytically  !
 ! A38   A(18,20,19)           121.4649         calculate D2E/DX2 analytically  !
 ! A39   A(1,23,16)            103.8101         calculate D2E/DX2 analytically  !
 ! D1    D(23,1,4,5)           -37.2483         calculate D2E/DX2 analytically  !
 ! D2    D(23,1,4,6)          -157.2483         calculate D2E/DX2 analytically  !
 ! D3    D(4,1,23,16)          -97.6231         calculate D2E/DX2 analytically  !
 ! D4    D(2,3,10,11)          -90.0            calculate D2E/DX2 analytically  !
 ! D5    D(2,3,10,12)           30.0            calculate D2E/DX2 analytically  !
 ! D6    D(2,3,10,13)          150.0            calculate D2E/DX2 analytically  !
 ! D7    D(14,3,10,11)          90.0            calculate D2E/DX2 analytically  !
 ! D8    D(14,3,10,12)        -150.0            calculate D2E/DX2 analytically  !
 ! D9    D(14,3,10,13)         -30.0            calculate D2E/DX2 analytically  !
 ! D10   D(2,3,14,15)            0.0            calculate D2E/DX2 analytically  !
 ! D11   D(10,3,14,15)        -180.0            calculate D2E/DX2 analytically  !
 ! D12   D(1,4,6,7)            180.0            calculate D2E/DX2 analytically  !
 ! D13   D(1,4,6,8)            -60.0            calculate D2E/DX2 analytically  !
 ! D14   D(1,4,6,9)             60.0            calculate D2E/DX2 analytically  !
 ! D15   D(5,4,6,7)             60.0            calculate D2E/DX2 analytically  !
 ! D16   D(5,4,6,8)            180.0            calculate D2E/DX2 analytically  !
 ! D17   D(5,4,6,9)            -60.0            calculate D2E/DX2 analytically  !
 ! D18   D(4,6,7,12)            43.9004         calculate D2E/DX2 analytically  !
 ! D19   D(8,6,7,12)           -76.0996         calculate D2E/DX2 analytically  !
 ! D20   D(9,6,7,12)           163.9004         calculate D2E/DX2 analytically  !
 ! D21   D(6,7,12,10)          -56.349          calculate D2E/DX2 analytically  !
 ! D22   D(3,10,12,7)           68.949          calculate D2E/DX2 analytically  !
 ! D23   D(11,10,12,7)        -171.051          calculate D2E/DX2 analytically  !
 ! D24   D(13,10,12,7)         -51.051          calculate D2E/DX2 analytically  !
 ! D25   D(3,14,15,16)         -90.0            calculate D2E/DX2 analytically  !
 ! D26   D(3,14,15,17)          90.0            calculate D2E/DX2 analytically  !
 ! D27   D(14,15,16,18)       -180.0            calculate D2E/DX2 analytically  !
 ! D28   D(14,15,16,23)          0.0002         calculate D2E/DX2 analytically  !
 ! D29   D(17,15,16,18)          0.0            calculate D2E/DX2 analytically  !
 ! D30   D(17,15,16,23)       -179.9999         calculate D2E/DX2 analytically  !
 ! D31   D(14,15,17,19)        180.0            calculate D2E/DX2 analytically  !
 ! D32   D(14,15,17,22)          0.0002         calculate D2E/DX2 analytically  !
 ! D33   D(16,15,17,19)          0.0            calculate D2E/DX2 analytically  !
 ! D34   D(16,15,17,22)       -179.9998         calculate D2E/DX2 analytically  !
 ! D35   D(15,16,18,20)         -0.0001         calculate D2E/DX2 analytically  !
 ! D36   D(15,16,18,24)        179.9999         calculate D2E/DX2 analytically  !
 ! D37   D(23,16,18,20)        179.9997         calculate D2E/DX2 analytically  !
 ! D38   D(23,16,18,24)         -0.0002         calculate D2E/DX2 analytically  !
 ! D39   D(15,16,23,1)          48.8013         calculate D2E/DX2 analytically  !
 ! D40   D(18,16,23,1)        -131.1986         calculate D2E/DX2 analytically  !
 ! D41   D(15,17,19,20)          0.0001         calculate D2E/DX2 analytically  !
 ! D42   D(15,17,19,21)       -179.9999         calculate D2E/DX2 analytically  !
 ! D43   D(22,17,19,20)        179.9999         calculate D2E/DX2 analytically  !
 ! D44   D(22,17,19,21)         -0.0001         calculate D2E/DX2 analytically  !
 ! D45   D(16,18,20,19)          0.0003         calculate D2E/DX2 analytically  !
 ! D46   D(24,18,20,19)       -179.9998         calculate D2E/DX2 analytically  !
 ! D47   D(17,19,20,18)         -0.0003         calculate D2E/DX2 analytically  !
 ! D48   D(21,19,20,18)        179.9998         calculate D2E/DX2 analytically  !
 --------------------------------------------------------------------------------
 Trust Radius=3.00D-01 FncErr=5.00D-06 GrdErr=5.00D-06 EigMax=2.50D+02 EigMin=1.00D-04
 Number of steps in this run=    122 maximum allowed number of steps=    144.
 Search for a saddle point of order  1.
 GradGradGradGradGradGradGradGradGradGradGradGradGradGradGradGradGradGrad

 Leave Link  103 at Mon Jul 15 23:53:57 2024, MaxMem=  8053063680 cpu:               0.1 elap:               0.0
 (Enter /share/apps/g16.b01_avx2/g16/l202.exe)
                          Input orientation:                          
 ---------------------------------------------------------------------
 Center     Atomic      Atomic             Coordinates (Angstroms)
 Number     Number       Type             X           Y           Z
 ---------------------------------------------------------------------
      1          1           0       -2.253538    1.597913    0.226792
      2          8           0       -1.738849   -0.625578    1.076596
      3          6           0       -2.080966   -0.709753   -0.131477
      4          7           0       -3.046999    1.026882    0.016212
      5          1           0       -3.438980    1.310540   -0.858939
      6          6           0       -4.054325    1.177611    1.076153
      7          1           0       -4.903328    0.566608    0.850832
      8          1           0       -3.634905    0.874096    2.012564
      9          1           0       -4.357965    2.201842    1.136585
     10          6           0       -3.461113   -1.283298   -0.502744
     11          1           0       -3.383059   -2.341988   -0.636843
     12          1           0       -4.157392   -1.073579    0.282186
     13          1           0       -3.801822   -0.832829   -1.411531
     14          8           0       -1.188169   -0.272830   -1.159540
     15          6           0        0.018645    0.214776   -0.567307
     16          6           0        0.144243    1.559549   -0.215935
     17          6           0        1.091526   -0.645757   -0.330538
     18          6           0        1.338356    2.010399    0.362984
     19          6           0        2.262488   -0.141011    0.251182
     20          7           0        2.354769    1.158675    0.579126
     21          9           0        3.305050   -0.966555    0.483648
     22          9           0        1.002296   -1.952202   -0.658775
     23          9           0       -0.874971    2.418133   -0.431657
     24          9           0        1.468217    3.309655    0.705869
 ---------------------------------------------------------------------
                    Distance matrix (angstroms):
                    1          2          3          4          5
     1  H    0.000000
     2  O    2.435361   0.000000
     3  C    2.341679   1.258400   0.000000
     4  N    1.000000   2.359300   1.992720   0.000000
     5  H    1.632993   3.222622   2.540667   1.000000   0.000000
     6  C    2.034920   2.934777   2.985743   1.470000   2.034920
     7  H    2.911082   3.389130   3.249578   2.086720   2.370879
     8  H    2.370879   2.592313   3.085485   2.086720   2.911082
     9  H    2.370879   3.854565   3.907697   2.086720   2.370879
    10  C    3.208089   2.427572   1.540000   2.403692   2.618275
    11  H    4.188616   2.930080   2.148263   3.448000   3.659702
    12  H    3.280945   2.584792   2.148263   2.390743   2.739034
    13  H    3.315085   3.238764   2.148263   2.463074   2.242999
    14  O    2.560587   2.329803   1.430000   2.554778   2.768316
    15  C    2.776054   2.548999   2.335180   3.224621   3.638807
    16  C    2.438613   3.160926   3.179374   3.243709   3.648965
    17  C    4.066217   3.160926   3.179374   4.477202   4.963042
    18  C    3.618065   4.114220   4.397213   4.507648   4.980546
    19  C    4.839312   4.114220   4.397213   5.441492   5.987161
    20  N    4.642581   4.493188   4.865359   5.432618   5.971484
    21  F    6.127020   5.090066   5.427107   6.673890   7.243593
    22  F    4.897754   3.505042   3.365743   5.072212   5.514570
    23  F    1.734002   3.505038   3.365740   2.617990   2.825504
    24  F    4.124444   5.090065   5.427107   5.106256   5.525003
                    6          7          8          9         10
     6  C    0.000000
     7  H    1.070000   0.000000
     8  H    1.070000   1.747303   0.000000
     9  H    1.070000   1.747303   1.747303   0.000000
    10  C    2.983435   2.708192   3.318332   3.954484   0.000000
    11  H    3.971465   3.603377   4.174444   4.974122   1.070000
    12  H    2.389323   1.889443   2.657187   3.390961   1.070000
    13  H    3.208457   2.879240   3.829606   4.001427   1.070000
    14  O    3.913687   4.306815   4.167037   4.630745   2.572683
    15  C    4.496342   5.134269   4.520936   5.099646   3.789078
    16  C    4.409460   5.253750   4.440497   4.744652   4.600286
    17  C    5.637661   6.229264   5.489920   6.321251   4.600286
    18  C    5.503013   6.425041   5.361495   5.751798   5.884967
    19  C    6.505495   7.225594   6.237961   7.078368   5.884967
    20  N    6.428365   7.287272   6.165381   6.816139   6.399856
    21  F    7.688232   8.358402   7.340883   8.317865   6.845017
    22  F    6.194765   6.595431   6.052078   7.015112   4.515949
    23  F    3.731042   4.615255   3.996937   3.825887   4.515947
    24  F    5.931373   6.938436   5.803555   5.946189   6.845017
                   11         12         13         14         15
    11  H    0.000000
    12  H    1.747303   0.000000
    13  H    1.747303   1.747303   0.000000
    14  O    3.061399   3.396477   2.684824   0.000000
    15  C    4.255992   4.452054   4.050451   1.430000   0.000000
    16  C    5.276459   5.068092   4.767007   2.454247   1.395583
    17  C    4.795095   5.301849   5.014818   2.454247   1.395583
    18  C    6.498822   6.302436   6.136308   3.730221   2.414817
    19  C    6.124140   6.487334   6.326064   3.730221   2.414817
    20  N    6.830512   6.890528   6.769964   4.198164   2.768164
    21  F    6.919402   7.465928   7.356441   4.834288   3.646987
    22  F    4.402698   5.317872   4.989909   2.805208   2.381540
    23  F    5.384363   4.845195   4.482785   2.805208   2.381540
    24  F    7.568278   7.144210   7.029713   4.834288   3.646987
                   16         17         18         19         20
    16  C    0.000000
    17  C    2.402885   0.000000
    18  C    1.401542   2.756277   0.000000
    19  C    2.756277   1.401542   2.344160   0.000000
    20  N    2.383117   2.383117   1.343595   1.343595   0.000000
    21  F    4.106254   2.380231   3.569972   1.350000   2.329969
    22  F    3.642082   1.350000   4.105988   2.386738   3.610975
    23  F    1.350000   3.642082   2.386738   4.105988   3.610975
    24  F    2.380231   4.106254   1.350000   3.569972   2.329969
                   21         22         23         24
    21  F    0.000000
    22  F    2.753054   0.000000
    23  F    5.455866   4.761885   0.000000
    24  F    4.659325   5.455866   2.753054   0.000000
 Stoichiometry    C8H8F4N2O2
 Framework group  C1[X(C8H8F4N2O2)]
 Deg. of freedom    66
 Full point group                 C1      NOp   1
 Largest Abelian subgroup         C1      NOp   1
 Largest concise Abelian subgroup C1      NOp   1
                         Standard orientation:                         
 ---------------------------------------------------------------------
 Center     Atomic      Atomic             Coordinates (Angstroms)
 Number     Number       Type             X           Y           Z
 ---------------------------------------------------------------------
      1          1           0       -1.847348    1.297567   -0.001923
      2          8           0       -1.410264   -0.768611    1.210863
      3          6           0       -1.781813   -1.042815    0.040250
      4          7           0       -2.668973    0.736017   -0.099877
      5          1           0       -3.067314    0.883176   -1.005233
      6          6           0       -3.645663    1.112423    0.932255
      7          1           0       -4.524801    0.511565    0.827443
      8          1           0       -3.219438    0.954963    1.900985
      9          1           0       -3.903672    2.144723    0.819615
     10          6           0       -3.193040   -1.607387   -0.207330
     11          1           0       -3.163433   -2.675847   -0.158158
     12          1           0       -3.862478   -1.234390    0.539414
     13          1           0       -3.533737   -1.304193   -1.175265
     14          8           0       -0.893602   -0.830165   -1.060096
     15          6           0        0.345598   -0.304308   -0.577648
     16          6           0        0.536403    1.073568   -0.464940
     17          6           0        1.385434   -1.159958   -0.211239
     18          6           0        1.761051    1.561555    0.010904
     19          6           0        2.589332   -0.617385    0.258405
     20          7           0        2.744414    0.713636    0.356268
     21          9           0        3.600293   -1.437944    0.614973
     22          9           0        1.233103   -2.497822   -0.308270
     23          9           0       -0.449455    1.928438   -0.811033
     24          9           0        1.953975    2.892985    0.123032
 ---------------------------------------------------------------------
 Rotational constants (GHZ):           0.7693519           0.4039832           0.2930196
 Leave Link  202 at Mon Jul 15 23:53:57 2024, MaxMem=  8053063680 cpu:               0.0 elap:               0.0
 (Enter /share/apps/g16.b01_avx2/g16/l301.exe)
 Standard basis: def2TZVP (5D, 7F)
 Ernie: Thresh=  0.10000D-02 Tol=  0.10000D-05 Strict=F.
 There are   624 symmetry adapted cartesian basis functions of A   symmetry.
 There are   544 symmetry adapted basis functions of A   symmetry.
   544 basis functions,   880 primitive gaussians,   624 cartesian basis functions
    61 alpha electrons       61 beta electrons
       nuclear repulsion energy      1214.8834080073 Hartrees.
 IExCor= 1009 DFT=T Ex+Corr=PBE1PBE ExCW=0 ScaHFX=  0.250000
 ScaDFX=  0.750000  0.750000  1.000000  1.000000 ScalE2=  1.000000  1.000000
 IRadAn=  99590 IRanWt=     -1 IRanGd=            0 ICorTp=0 IEmpDi=131
 NAtoms=   24 NActive=   24 NUniq=   24 SFac= 1.00D+00 NAtFMM=   60 NAOKFM=F Big=F
 Integral buffers will be    131072 words long.
 Raffenetti 2 integral format.
 Two-electron integral symmetry is turned on.
 R6Disp:  Grimme-D3 Dispersion energy=       -0.0150884811 Hartrees.
 Nuclear repulsion after empirical dispersion term =     1214.8683195262 Hartrees.
 Force inversion solution in PCM.
 ------------------------------------------------------------------------------
 Polarizable Continuum Model (PCM)
 =================================
 Model                : PCM.
 Atomic radii         : UFF (Universal Force Field).
 Polarization charges : Total charges.
 Charge compensation  : None.
 Solution method      : Matrix inversion.
 Cavity type          : Scaled VdW (van der Waals Surface) (Alpha=1.100).
 Cavity algorithm     : GePol (No added spheres)
                        Default sphere list used, NSphG=   24.
                        Lebedev-Laikov grids with approx.  5.0 points / Ang**2.
                        Smoothing algorithm: York/Karplus (Gamma=1.0000).
                        Polarization charges: spherical gaussians, with
                                              point-specific exponents (IZeta= 3).
                        Self-potential: point-specific (ISelfS= 7).
                        Self-field    : sphere-specific E.n sum rule (ISelfD= 2).
 1st derivatives      : Analytical E(r).r(x)/FMM algorithm (CHGder, D1EAlg=3).
                        Cavity 1st derivative terms included.
 2nd derivatives      : Analytical E(r).r(xy)/FMM algorithm (CHGder, D2EAlg=3).
                        Cavity 2nd derivative terms included.
 Solvent              : Water, Eps=  78.355300 Eps(inf)=   1.777849
 ------------------------------------------------------------------------------
 GePol: Number of generator spheres                  =      24
 GePol: Total number of spheres                      =      24
 GePol: Number of exposed spheres                    =      24 (100.00%)
 GePol: Number of points                             =    2030
 GePol: Average weight of points                     =       0.13
 GePol: Minimum weight of points                     =   0.47D-08
 GePol: Maximum weight of points                     =    0.20577
 GePol: Number of points with low weight             =     117
 GePol: Fraction of low-weight points (<1% of avg)   =       5.76%
 GePol: Cavity surface area                          =    258.979 Ang**2
 GePol: Cavity volume                                =    271.892 Ang**3
 Leave Link  301 at Mon Jul 15 23:53:57 2024, MaxMem=  8053063680 cpu:               0.7 elap:               0.0
 (Enter /share/apps/g16.b01_avx2/g16/l302.exe)
 NPDir=0 NMtPBC=     1 NCelOv=     1 NCel=       1 NClECP=     1 NCelD=      1
         NCelK=      1 NCelE2=     1 NClLst=     1 CellRange=     0.0.
 One-electron integrals computed using PRISM.
 One-electron integral symmetry used in STVInt
   1 Symmetry operations used in ECPInt.
 ECPInt:  NShTT=   21736 NPrTT=   68272 LenC2=   19636 LenP2D=   44757.
 LDataN:  DoStor=T MaxTD1= 6 Len=  172
 NBasis=   544 RedAO= T EigKep=  4.59D-05  NBF=   544
 NBsUse=   544 1.00D-06 EigRej= -1.00D+00 NBFU=   544
 Precomputing XC quadrature grid using
 IXCGrd= 4 IRadAn=       99590 IRanWt=          -1 IRanGd=           0 AccXCQ= 0.00D+00.
 Generated NRdTot=       0 NPtTot=           0 NUsed=           0 NTot=          32
 NSgBfM=   616   616   616   616   616 MxSgAt=    24 MxSgA2=    24.
 Leave Link  302 at Mon Jul 15 23:53:57 2024, MaxMem=  8053063680 cpu:               3.9 elap:               0.2
 (Enter /share/apps/g16.b01_avx2/g16/l303.exe)
 DipDrv:  MaxL=1.
 Leave Link  303 at Mon Jul 15 23:53:57 2024, MaxMem=  8053063680 cpu:               0.7 elap:               0.0
 (Enter /share/apps/g16.b01_avx2/g16/l401.exe)
 ExpMin= 9.52D-02 ExpMax= 3.55D+04 ExpMxC= 1.21D+03 IAcc=4 IRadAn=    199590 AccDes= 0.00D+00
 Harris functional with IExCor= 1009 and IRadAn=  199590 diagonalized for initial guess.
 HarFok:  IExCor= 1009 AccDes= 0.00D+00 IRadAn=    199590 IDoV= 1 UseB2=F ITyADJ=14
 ICtDFT=  3500011 ScaDFX=  1.000000  1.000000  1.000000  1.000000
 FoFCou: FMM=F IPFlag=           0 FMFlag=      100000 FMFlg1=           0
         NFxFlg=           0 DoJE=T BraDBF=F KetDBF=T FulRan=T
         wScrn=  0.000000 ICntrl=       500 IOpCl=  0 I1Cent=   200000004 NGrid=           0
         NMat0=    1 NMatS0=      1 NMatT0=    0 NMatD0=    1 NMtDS0=    0 NMtDT0=    0
 Petite list used in FoFCou.
 Harris En= -968.404800548650    
 JPrj=0 DoOrth=F DoCkMO=F.
 Leave Link  401 at Mon Jul 15 23:54:00 2024, MaxMem=  8053063680 cpu:              33.7 elap:               2.1
 (Enter /share/apps/g16.b01_avx2/g16/l502.exe)
 Integral symmetry usage will be decided dynamically.
 Closed shell SCF:
 Using DIIS extrapolation, IDIIS=  1040.
 NGot=  8053063680 LenX=  8052269538 LenY=  8051879538
 Requested convergence on RMS density matrix=1.00D-08 within 128 cycles.
 Requested convergence on MAX density matrix=1.00D-06.
 Requested convergence on             energy=1.00D-06.
 No special actions if energy rises.
 Fock matrices will be formed incrementally for  20 cycles.

 Cycle   1  Pass 1  IDiag  1:
 FoFJK:  IHMeth= 1 ICntrl=       0 DoSepK=F KAlg= 0 I1Cent=           0 FoldK=F
 IRaf= 850000000 NMat=       1 IRICut=       1 DoRegI=T DoRafI=F ISym2E= 0 IDoP0=0 IntGTp=1.
 FoFCou: FMM=F IPFlag=           0 FMFlag=      100000 FMFlg1=           0
         NFxFlg=           0 DoJE=F BraDBF=F KetDBF=F FulRan=T
         wScrn=  0.000000 ICntrl=         0 IOpCl=  0 I1Cent=           0 NGrid=           0
         NMat0=    1 NMatS0=      1 NMatT0=    0 NMatD0=    1 NMtDS0=    0 NMtDT0=    0
 Symmetry not used in FoFCou.
 Inv3:  Mode=1 IEnd=    12362700.
 Iteration    1 A*A^-1 deviation from unit magnitude is 3.55D-15 for     10.
 Iteration    1 A*A^-1 deviation from orthogonality  is 2.39D-15 for   1703     91.
 Iteration    1 A^-1*A deviation from unit magnitude is 5.11D-15 for    225.
 Iteration    1 A^-1*A deviation from orthogonality  is 1.87D-14 for   1995   1645.
 E= -968.012514715158    
 DIIS: error= 1.71D-02 at cycle   1 NSaved=   1.
 NSaved= 1 IEnMin= 1 EnMin= -968.012514715158     IErMin= 1 ErrMin= 1.71D-02
 ErrMax= 1.71D-02  0.00D+00 EMaxC= 1.00D-01 BMatC= 3.96D-01 BMatP= 3.96D-01
 IDIUse=3 WtCom= 8.29D-01 WtEn= 1.71D-01
 Coeff-Com:  0.100D+01
 Coeff-En:   0.100D+01
 Coeff:      0.100D+01
 Gap=     0.243 Goal=   None    Shift=    0.000
 GapD=    0.243 DampG=1.000 DampE=0.500 DampFc=0.5000 IDamp=-1.
 Damping current iteration by 5.00D-01
 RMSDP=2.42D-03 MaxDP=1.47D-01              OVMax= 2.51D-01

 Cycle   2  Pass 1  IDiag  1:
 RMSU=  1.21D-03    CP:  9.92D-01
 E= -968.103635411716     Delta-E=       -0.091120696557 Rises=F Damp=T
 DIIS: error= 5.40D-03 at cycle   2 NSaved=   2.
 NSaved= 2 IEnMin= 2 EnMin= -968.103635411716     IErMin= 2 ErrMin= 5.40D-03
 ErrMax= 5.40D-03  0.00D+00 EMaxC= 1.00D-01 BMatC= 5.02D-02 BMatP= 3.96D-01
 IDIUse=3 WtCom= 9.46D-01 WtEn= 5.40D-02
 Coeff-Com:  0.146D+00 0.854D+00
 Coeff-En:   0.291D+00 0.709D+00
 Coeff:      0.154D+00 0.846D+00
 Gap=     0.205 Goal=   None    Shift=    0.000
 RMSDP=8.32D-04 MaxDP=6.79D-02 DE=-9.11D-02 OVMax= 1.93D-01

 Cycle   3  Pass 1  IDiag  1:
 RMSU=  6.44D-04    CP:  9.81D-01  5.72D-01
 E= -968.261343566414     Delta-E=       -0.157708154698 Rises=F Damp=F
 DIIS: error= 5.75D-03 at cycle   3 NSaved=   3.
 NSaved= 3 IEnMin= 3 EnMin= -968.261343566414     IErMin= 2 ErrMin= 5.40D-03
 ErrMax= 5.75D-03  0.00D+00 EMaxC= 1.00D-01 BMatC= 4.57D-02 BMatP= 5.02D-02
 IDIUse=3 WtCom= 9.43D-01 WtEn= 5.75D-02
 Coeff-Com: -0.721D-02 0.487D+00 0.520D+00
 Coeff-En:   0.000D+00 0.000D+00 0.100D+01
 Coeff:     -0.679D-02 0.459D+00 0.548D+00
 Gap=     0.202 Goal=   None    Shift=    0.000
 RMSDP=3.72D-04 MaxDP=2.74D-02 DE=-1.58D-01 OVMax= 5.59D-02

 Cycle   4  Pass 1  IDiag  1:
 RMSU=  3.09D-04    CP:  9.80D-01  6.73D-01  7.41D-01
 E= -968.290237654719     Delta-E=       -0.028894088306 Rises=F Damp=F
 DIIS: error= 2.01D-03 at cycle   4 NSaved=   4.
 NSaved= 4 IEnMin= 4 EnMin= -968.290237654719     IErMin= 4 ErrMin= 2.01D-03
 ErrMax= 2.01D-03  0.00D+00 EMaxC= 1.00D-01 BMatC= 6.89D-03 BMatP= 4.57D-02
 IDIUse=3 WtCom= 9.80D-01 WtEn= 2.01D-02
 Coeff-Com: -0.292D-01 0.126D+00 0.312D+00 0.591D+00
 Coeff-En:   0.000D+00 0.000D+00 0.130D+00 0.870D+00
 Coeff:     -0.286D-01 0.123D+00 0.309D+00 0.597D+00
 Gap=     0.186 Goal=   None    Shift=    0.000
 RMSDP=1.27D-04 MaxDP=7.12D-03 DE=-2.89D-02 OVMax= 2.27D-02

 Cycle   5  Pass 1  IDiag  1:
 RMSU=  6.95D-05    CP:  9.79D-01  6.72D-01  8.32D-01  7.13D-01
 E= -968.295178194777     Delta-E=       -0.004940540058 Rises=F Damp=F
 DIIS: error= 5.95D-04 at cycle   5 NSaved=   5.
 NSaved= 5 IEnMin= 5 EnMin= -968.295178194777     IErMin= 5 ErrMin= 5.95D-04
 ErrMax= 5.95D-04  0.00D+00 EMaxC= 1.00D-01 BMatC= 4.55D-04 BMatP= 6.89D-03
 IDIUse=3 WtCom= 9.94D-01 WtEn= 5.95D-03
 Coeff-Com: -0.139D-01 0.351D-01 0.120D+00 0.313D+00 0.546D+00
 Coeff-En:   0.000D+00 0.000D+00 0.000D+00 0.000D+00 0.100D+01
 Coeff:     -0.138D-01 0.349D-01 0.119D+00 0.311D+00 0.549D+00
 Gap=     0.189 Goal=   None    Shift=    0.000
 RMSDP=3.17D-05 MaxDP=1.98D-03 DE=-4.94D-03 OVMax= 5.73D-03

 Cycle   6  Pass 1  IDiag  1:
 RMSU=  1.90D-05    CP:  9.79D-01  6.73D-01  8.26D-01  7.51D-01  6.82D-01
 E= -968.295523789418     Delta-E=       -0.000345594641 Rises=F Damp=F
 DIIS: error= 1.42D-04 at cycle   6 NSaved=   6.
 NSaved= 6 IEnMin= 6 EnMin= -968.295523789418     IErMin= 6 ErrMin= 1.42D-04
 ErrMax= 1.42D-04  0.00D+00 EMaxC= 1.00D-01 BMatC= 2.68D-05 BMatP= 4.55D-04
 IDIUse=3 WtCom= 9.99D-01 WtEn= 1.42D-03
 Coeff-Com: -0.473D-02 0.727D-02 0.326D-01 0.103D+00 0.265D+00 0.597D+00
 Coeff-En:   0.000D+00 0.000D+00 0.000D+00 0.000D+00 0.000D+00 0.100D+01
 Coeff:     -0.473D-02 0.726D-02 0.325D-01 0.103D+00 0.265D+00 0.597D+00
 Gap=     0.189 Goal=   None    Shift=    0.000
 RMSDP=8.13D-06 MaxDP=5.31D-04 DE=-3.46D-04 OVMax= 1.07D-03

 Cycle   7  Pass 1  IDiag  1:
 RMSU=  6.72D-06    CP:  9.79D-01  6.73D-01  8.25D-01  7.47D-01  6.79D-01
                    CP:  7.71D-01
 E= -968.295543750295     Delta-E=       -0.000019960877 Rises=F Damp=F
 DIIS: error= 5.31D-05 at cycle   7 NSaved=   7.
 NSaved= 7 IEnMin= 7 EnMin= -968.295543750295     IErMin= 7 ErrMin= 5.31D-05
 ErrMax= 5.31D-05  0.00D+00 EMaxC= 1.00D-01 BMatC= 1.51D-06 BMatP= 2.68D-05
 IDIUse=1 WtCom= 1.00D+00 WtEn= 0.00D+00
 Coeff-Com: -0.126D-02 0.128D-02 0.703D-02 0.265D-01 0.856D-01 0.260D+00
 Coeff-Com:  0.621D+00
 Coeff:     -0.126D-02 0.128D-02 0.703D-02 0.265D-01 0.856D-01 0.260D+00
 Coeff:      0.621D+00
 Gap=     0.188 Goal=   None    Shift=    0.000
 RMSDP=2.82D-06 MaxDP=1.51D-04 DE=-2.00D-05 OVMax= 5.89D-04

 Cycle   8  Pass 1  IDiag  1:
 RMSU=  2.18D-06    CP:  9.79D-01  6.73D-01  8.25D-01  7.48D-01  6.92D-01
                    CP:  8.26D-01  8.31D-01
 E= -968.295544683576     Delta-E=       -0.000000933281 Rises=F Damp=F
 DIIS: error= 2.87D-05 at cycle   8 NSaved=   8.
 NSaved= 8 IEnMin= 8 EnMin= -968.295544683576     IErMin= 8 ErrMin= 2.87D-05
 ErrMax= 2.87D-05  0.00D+00 EMaxC= 1.00D-01 BMatC= 4.54D-07 BMatP= 1.51D-06
 IDIUse=1 WtCom= 1.00D+00 WtEn= 0.00D+00
 Coeff-Com: -0.971D-04-0.221D-03-0.499D-03 0.741D-03 0.127D-01 0.655D-01
 Coeff-Com:  0.377D+00 0.544D+00
 Coeff:     -0.971D-04-0.221D-03-0.499D-03 0.741D-03 0.127D-01 0.655D-01
 Coeff:      0.377D+00 0.544D+00
 Gap=     0.188 Goal=   None    Shift=    0.000
 RMSDP=1.17D-06 MaxDP=7.34D-05 DE=-9.33D-07 OVMax= 2.65D-04

 Cycle   9  Pass 1  IDiag  1:
 RMSU=  6.34D-07    CP:  9.79D-01  6.73D-01  8.25D-01  7.49D-01  6.93D-01
                    CP:  8.22D-01  8.77D-01  6.32D-01
 E= -968.295545087215     Delta-E=       -0.000000403639 Rises=F Damp=F
 DIIS: error= 3.53D-06 at cycle   9 NSaved=   9.
 NSaved= 9 IEnMin= 9 EnMin= -968.295545087215     IErMin= 9 ErrMin= 3.53D-06
 ErrMax= 3.53D-06  0.00D+00 EMaxC= 1.00D-01 BMatC= 2.20D-08 BMatP= 4.54D-07
 IDIUse=1 WtCom= 1.00D+00 WtEn= 0.00D+00
 Coeff-Com:  0.760D-04-0.209D-03-0.884D-03-0.224D-02-0.324D-02 0.464D-03
 Coeff-Com:  0.980D-01 0.244D+00 0.664D+00
 Coeff:      0.760D-04-0.209D-03-0.884D-03-0.224D-02-0.324D-02 0.464D-03
 Coeff:      0.980D-01 0.244D+00 0.664D+00
 Gap=     0.188 Goal=   None    Shift=    0.000
 RMSDP=3.81D-07 MaxDP=3.54D-05 DE=-4.04D-07 OVMax= 4.13D-05

 Cycle  10  Pass 1  IDiag  1:
 RMSU=  1.62D-07    CP:  9.79D-01  6.73D-01  8.25D-01  7.49D-01  6.92D-01
                    CP:  8.26D-01  9.01D-01  7.14D-01  7.77D-01
 E= -968.295545103768     Delta-E=       -0.000000016553 Rises=F Damp=F
 DIIS: error= 1.18D-06 at cycle  10 NSaved=  10.
 NSaved=10 IEnMin=10 EnMin= -968.295545103768     IErMin=10 ErrMin= 1.18D-06
 ErrMax= 1.18D-06  0.00D+00 EMaxC= 1.00D-01 BMatC= 1.48D-09 BMatP= 2.20D-08
 IDIUse=1 WtCom= 1.00D+00 WtEn= 0.00D+00
 Coeff-Com:  0.329D-04-0.793D-04-0.365D-03-0.938D-03-0.169D-02-0.164D-02
 Coeff-Com:  0.306D-01 0.930D-01 0.315D+00 0.567D+00
 Coeff:      0.329D-04-0.793D-04-0.365D-03-0.938D-03-0.169D-02-0.164D-02
 Coeff:      0.306D-01 0.930D-01 0.315D+00 0.567D+00
 Gap=     0.188 Goal=   None    Shift=    0.000
 RMSDP=7.72D-08 MaxDP=5.32D-06 DE=-1.66D-08 OVMax= 1.22D-05

 Cycle  11  Pass 1  IDiag  1:
 RMSU=  5.43D-08    CP:  9.79D-01  6.73D-01  8.25D-01  7.49D-01  6.93D-01
                    CP:  8.27D-01  9.01D-01  7.15D-01  8.03D-01  7.56D-01
 E= -968.295545104728     Delta-E=       -0.000000000960 Rises=F Damp=F
 DIIS: error= 3.97D-07 at cycle  11 NSaved=  11.
 NSaved=11 IEnMin=11 EnMin= -968.295545104728     IErMin=11 ErrMin= 3.97D-07
 ErrMax= 3.97D-07  0.00D+00 EMaxC= 1.00D-01 BMatC= 2.25D-10 BMatP= 1.48D-09
 IDIUse=1 WtCom= 1.00D+00 WtEn= 0.00D+00
 Coeff-Com:  0.470D-05-0.668D-05-0.535D-04-0.140D-03-0.489D-03-0.129D-02
 Coeff-Com: -0.200D-02 0.430D-02 0.394D-01 0.294D+00 0.666D+00
 Coeff:      0.470D-05-0.668D-05-0.535D-04-0.140D-03-0.489D-03-0.129D-02
 Coeff:     -0.200D-02 0.430D-02 0.394D-01 0.294D+00 0.666D+00
 Gap=     0.188 Goal=   None    Shift=    0.000
 RMSDP=2.86D-08 MaxDP=1.45D-06 DE=-9.60D-10 OVMax= 2.56D-06

 Cycle  12  Pass 1  IDiag  1:
 RMSU=  1.42D-08    CP:  9.79D-01  6.73D-01  8.25D-01  7.49D-01  6.93D-01
                    CP:  8.27D-01  9.02D-01  7.20D-01  8.12D-01  8.42D-01
                    CP:  7.66D-01
 E= -968.295545104887     Delta-E=       -0.000000000159 Rises=F Damp=F
 DIIS: error= 7.10D-08 at cycle  12 NSaved=  12.
 NSaved=12 IEnMin=12 EnMin= -968.295545104887     IErMin=12 ErrMin= 7.10D-08
 ErrMax= 7.10D-08  0.00D+00 EMaxC= 1.00D-01 BMatC= 1.26D-11 BMatP= 2.25D-10
 IDIUse=1 WtCom= 1.00D+00 WtEn= 0.00D+00
 Coeff-Com: -0.367D-06 0.254D-05-0.136D-06 0.559D-05-0.977D-04-0.389D-03
 Coeff-Com: -0.288D-02-0.389D-02-0.207D-02 0.973D-01 0.295D+00 0.617D+00
 Coeff:     -0.367D-06 0.254D-05-0.136D-06 0.559D-05-0.977D-04-0.389D-03
 Coeff:     -0.288D-02-0.389D-02-0.207D-02 0.973D-01 0.295D+00 0.617D+00
 Gap=     0.188 Goal=   None    Shift=    0.000
 RMSDP=6.91D-09 MaxDP=3.80D-07 DE=-1.59D-10 OVMax= 8.61D-07

 Error on total polarization charges =  0.01023
 SCF Done:  E(RPBE1PBE) =  -968.295545105     A.U. after   12 cycles
            NFock= 12  Conv=0.69D-08     -V/T= 2.0044
 KE= 9.640413562624D+02 PE=-4.711058000072D+03 EE= 1.563852779178D+03
 Leave Link  502 at Mon Jul 15 23:55:07 2024, MaxMem=  8053063680 cpu:            1070.5 elap:              67.1
 (Enter /share/apps/g16.b01_avx2/g16/l801.exe)
 DoSCS=F DFT=T ScalE2(SS,OS)=  1.000000  1.000000
 Range of M.O.s used for correlation:     1   544
 NBasis=   544 NAE=    61 NBE=    61 NFC=     0 NFV=     0
 NROrb=    544 NOA=    61 NOB=    61 NVA=   483 NVB=   483

 **** Warning!!: The largest alpha MO coefficient is  0.26608806D+02

 Leave Link  801 at Mon Jul 15 23:55:07 2024, MaxMem=  8053063680 cpu:               0.3 elap:               0.0
 (Enter /share/apps/g16.b01_avx2/g16/l1101.exe)
 Using compressed storage, NAtomX=    24.
 Will process     25 centers per pass.
   1 Symmetry operations used in ECPInt.
 ECPInt:  NShTT=   21736 NPrTT=   68272 LenC2=   19636 LenP2D=   44757.
 LDataN:  DoStor=T MaxTD1= 7 Len=  274
 R6Disp: Adding Grimme-D3 dispersion energy 1st derivatives to the gradient.
 Leave Link 1101 at Mon Jul 15 23:55:08 2024, MaxMem=  8053063680 cpu:              10.6 elap:               0.7
 (Enter /share/apps/g16.b01_avx2/g16/l1102.exe)
 Symmetrizing basis deriv contribution to polar:
 IMax=3 JMax=2 DiffMx= 0.00D+00
 Leave Link 1102 at Mon Jul 15 23:55:08 2024, MaxMem=  8053063680 cpu:               0.6 elap:               0.0
 (Enter /share/apps/g16.b01_avx2/g16/l1110.exe)
 Forming Gx(P) for the SCF density, NAtomX=    24.
 Integral derivatives from FoFJK, PRISM(SPDF).
 Do as many integral derivatives as possible in FoFJK.
 G2DrvN: MDV=    8053061624.
 G2DrvN: will do    25 centers at a time, making    1 passes.
 Calling FoFCou, ICntrl=  3107 FMM=F I1Cent=   0 AccDes= 0.00D+00.
 FoFJK:  IHMeth= 1 ICntrl=    3107 DoSepK=F KAlg= 0 I1Cent=           0 FoldK=F
 IRaf=         0 NMat=       1 IRICut=       1 DoRegI=T DoRafI=F ISym2E= 0 IDoP0=0 IntGTp=1.
 FoFCou: FMM=F IPFlag=           0 FMFlag=      100000 FMFlg1=           0
         NFxFlg=           0 DoJE=F BraDBF=F KetDBF=F FulRan=T
         wScrn=  0.000000 ICntrl=      3107 IOpCl=  0 I1Cent=           0 NGrid=           0
         NMat0=    1 NMatS0=      1 NMatT0=    0 NMatD0=    1 NMtDS0=    0 NMtDT0=    0
 Symmetry not used in FoFCou.
 NEqPCM:  Using equilibrium solvation (IEInf=0, Eps=  78.3553, EpsInf=   1.7778)
 G2PCM: DoFxE=T DoFxN=T DoGrad=T DoDP/DQ/DG/TGxP=FFFF NFrqRd=   0 IEInf=0 SqF1=F DoCFld=F IF1Alg=4.
 GePol: Maximum number of non-zero 1st derivatives   =     211
 End of G2Drv F.D. properties file   721 does not exist.
 End of G2Drv F.D. properties file   722 does not exist.
 End of G2Drv F.D. properties file   788 does not exist.
 Leave Link 1110 at Mon Jul 15 23:57:03 2024, MaxMem=  8053063680 cpu:            1851.0 elap:             115.7
 (Enter /share/apps/g16.b01_avx2/g16/l1002.exe)
 Minotr:  Closed shell wavefunction.
          IDoAtm=111111111111111111111111
 NEqPCM:  Using equilibrium solvation (IEInf=0, Eps=  78.3553, EpsInf=   1.7778)
          Direct CPHF calculation.
          Differentiating once with respect to nuclear coordinates.
          Requested convergence is 1.0D-08 RMS, and 1.0D-07 maximum.
          Secondary convergence is 1.0D-12 RMS, and 1.0D-12 maximum.
          NewPWx=T KeepS1=F KeepF1=F KeepIn=T MapXYZ=F SortEE=F KeepMc=T.
        16729 words used for storage of precomputed grid.
 Two-electron integrals replicated using symmetry.
          MDV=    8053063680 using IRadAn=   99302.
          Solving linear equations simultaneously, MaxMat=     384.
 FoF2E skips out because all densities are zero.
 CalDSu exits because no D1Ps are significant.
 FoFJK:  IHMeth= 1 ICntrl=       0 DoSepK=F KAlg= 0 I1Cent=           0 FoldK=F
 IRaf= 830000000 NMat=      72 IRICut=     180 DoRegI=T DoRafI=T ISym2E= 2 IDoP0=3 IntGTp=3.
          There are    75 degrees of freedom in the 1st order CPHF.  IDoFFX=6 NUNeed=     0.
     69 vectors produced by pass  0 Test12= 3.93D-14 1.33D-09 XBig12= 1.67D-01 1.67D-01.
 AX will form    69 AO Fock derivatives at one time.
     69 vectors produced by pass  1 Test12= 3.93D-14 1.33D-09 XBig12= 2.04D-02 3.00D-02.
     69 vectors produced by pass  2 Test12= 3.93D-14 1.33D-09 XBig12= 3.83D-04 2.99D-03.
     69 vectors produced by pass  3 Test12= 3.93D-14 1.33D-09 XBig12= 3.83D-06 3.16D-04.
     69 vectors produced by pass  4 Test12= 3.93D-14 1.33D-09 XBig12= 1.38D-08 1.61D-05.
     69 vectors produced by pass  5 Test12= 3.93D-14 1.33D-09 XBig12= 3.59D-11 6.61D-07.
     44 vectors produced by pass  6 Test12= 3.93D-14 1.33D-09 XBig12= 9.08D-14 2.25D-08.
 InvSVY:  IOpt=1 It=  1 EMax= 5.55D-16
 Solved reduced A of dimension   458 with    75 vectors.
 End of Minotr F.D. properties file   721 does not exist.
 End of Minotr F.D. properties file   722 does not exist.
 End of Minotr F.D. properties file   788 does not exist.
 Leave Link 1002 at Tue Jul 16 00:02:52 2024, MaxMem=  8053063680 cpu:            5569.5 elap:             348.1
 (Enter /share/apps/g16.b01_avx2/g16/l601.exe)
 Copying SCF densities to generalized density rwf, IOpCl= 0 IROHF=0.

 **********************************************************************

            Population analysis using the SCF Density.

 **********************************************************************

 Orbital symmetries:
       Occupied  (A) (A) (A) (A) (A) (A) (A) (A) (A) (A) (A) (A)
                 (A) (A) (A) (A) (A) (A) (A) (A) (A) (A) (A) (A)
                 (A) (A) (A) (A) (A) (A) (A) (A) (A) (A) (A) (A)
                 (A) (A) (A) (A) (A) (A) (A) (A) (A) (A) (A) (A)
                 (A) (A) (A) (A) (A) (A) (A) (A) (A) (A) (A) (A)
                 (A)
       Virtual   (A) (A) (A) (A) (A) (A) (A) (A) (A) (A) (A) (A)
                 (A) (A) (A) (A) (A) (A) (A) (A) (A) (A) (A) (A)
                 (A) (A) (A) (A) (A) (A) (A) (A) (A) (A) (A) (A)
                 (A) (A) (A) (A) (A) (A) (A) (A) (A) (A) (A) (A)
                 (A) (A) (A) (A) (A) (A) (A) (A) (A) (A) (A) (A)
                 (A) (A) (A) (A) (A) (A) (A) (A) (A) (A) (A) (A)
                 (A) (A) (A) (A) (A) (A) (A) (A) (A) (A) (A) (A)
                 (A) (A) (A) (A) (A) (A) (A) (A) (A) (A) (A) (A)
                 (A) (A) (A) (A) (A) (A) (A) (A) (A) (A) (A) (A)
                 (A) (A) (A) (A) (A) (A) (A) (A) (A) (A) (A) (A)
                 (A) (A) (A) (A) (A) (A) (A) (A) (A) (A) (A) (A)
                 (A) (A) (A) (A) (A) (A) (A) (A) (A) (A) (A) (A)
                 (A) (A) (A) (A) (A) (A) (A) (A) (A) (A) (A) (A)
                 (A) (A) (A) (A) (A) (A) (A) (A) (A) (A) (A) (A)
                 (A) (A) (A) (A) (A) (A) (A) (A) (A) (A) (A) (A)
                 (A) (A) (A) (A) (A) (A) (A) (A) (A) (A) (A) (A)
                 (A) (A) (A) (A) (A) (A) (A) (A) (A) (A) (A) (A)
                 (A) (A) (A) (A) (A) (A) (A) (A) (A) (A) (A) (A)
                 (A) (A) (A) (A) (A) (A) (A) (A) (A) (A) (A) (A)
                 (A) (A) (A) (A) (A) (A) (A) (A) (A) (A) (A) (A)
                 (A) (A) (A) (A) (A) (A) (A) (A) (A) (A) (A) (A)
                 (A) (A) (A) (A) (A) (A) (A) (A) (A) (A) (A) (A)
                 (A) (A) (A) (A) (A) (A) (A) (A) (A) (A) (A) (A)
                 (A) (A) (A) (A) (A) (A) (A) (A) (A) (A) (A) (A)
                 (A) (A) (A) (A) (A) (A) (A) (A) (A) (A) (A) (A)
                 (A) (A) (A) (A) (A) (A) (A) (A) (A) (A) (A) (A)
                 (A) (A) (A) (A) (A) (A) (A) (A) (A) (A) (A) (A)
                 (A) (A) (A) (A) (A) (A) (A) (A) (A) (A) (A) (A)
                 (A) (A) (A) (A) (A) (A) (A) (A) (A) (A) (A) (A)
                 (A) (A) (A) (A) (A) (A) (A) (A) (A) (A) (A) (A)
                 (A) (A) (A) (A) (A) (A) (A) (A) (A) (A) (A) (A)
                 (A) (A) (A) (A) (A) (A) (A) (A) (A) (A) (A) (A)
                 (A) (A) (A) (A) (A) (A) (A) (A) (A) (A) (A) (A)
                 (A) (A) (A) (A) (A) (A) (A) (A) (A) (A) (A) (A)
                 (A) (A) (A) (A) (A) (A) (A) (A) (A) (A) (A) (A)
                 (A) (A) (A) (A) (A) (A) (A) (A) (A) (A) (A) (A)
                 (A) (A) (A) (A) (A) (A) (A) (A) (A) (A) (A) (A)
                 (A) (A) (A) (A) (A) (A) (A) (A) (A) (A) (A) (A)
                 (A) (A) (A) (A) (A) (A) (A) (A) (A) (A) (A) (A)
                 (A) (A) (A) (A) (A) (A) (A) (A) (A) (A) (A) (A)
                 (A) (A) (A)
 The electronic state is 1-A.
 Alpha  occ. eigenvalues --  -24.83246 -24.82453 -24.82395 -24.81996 -19.28383
 Alpha  occ. eigenvalues --  -19.17041 -14.44214 -14.38084 -10.39232 -10.39138
 Alpha  occ. eigenvalues --  -10.37781 -10.36315 -10.36075 -10.35235 -10.23589
 Alpha  occ. eigenvalues --  -10.22397  -1.31186  -1.30211  -1.29567  -1.28876
 Alpha  occ. eigenvalues --   -1.13447  -1.03079  -1.01976  -0.93186  -0.87350
 Alpha  occ. eigenvalues --   -0.82881  -0.77408  -0.71735  -0.71438  -0.70420
 Alpha  occ. eigenvalues --   -0.64308  -0.63312  -0.62137  -0.59740  -0.58555
 Alpha  occ. eigenvalues --   -0.56806  -0.55908  -0.54385  -0.52730  -0.51990
 Alpha  occ. eigenvalues --   -0.51587  -0.50485  -0.50009  -0.49531  -0.48629
 Alpha  occ. eigenvalues --   -0.46985  -0.46377  -0.46004  -0.44383  -0.43130
 Alpha  occ. eigenvalues --   -0.42148  -0.41543  -0.40391  -0.39754  -0.39081
 Alpha  occ. eigenvalues --   -0.34924  -0.34067  -0.32629  -0.28982  -0.28714
 Alpha  occ. eigenvalues --   -0.25102
 Alpha virt. eigenvalues --   -0.06254  -0.03542  -0.00108   0.01904   0.05421
 Alpha virt. eigenvalues --    0.06002   0.08298   0.08677   0.09371   0.11167
 Alpha virt. eigenvalues --    0.11648   0.12728   0.13269   0.13601   0.14590
 Alpha virt. eigenvalues --    0.15295   0.16112   0.16571   0.17712   0.18813
 Alpha virt. eigenvalues --    0.19464   0.19652   0.20756   0.22213   0.22787
 Alpha virt. eigenvalues --    0.23513   0.23968   0.24244   0.25284   0.26514
 Alpha virt. eigenvalues --    0.27714   0.27755   0.28978   0.30015   0.30513
 Alpha virt. eigenvalues --    0.30774   0.31898   0.32387   0.33080   0.33563
 Alpha virt. eigenvalues --    0.34885   0.35489   0.35892   0.37498   0.37886
 Alpha virt. eigenvalues --    0.38972   0.39716   0.40072   0.40997   0.41658
 Alpha virt. eigenvalues --    0.42692   0.43519   0.44072   0.44623   0.45694
 Alpha virt. eigenvalues --    0.45757   0.46785   0.47739   0.47977   0.49561
 Alpha virt. eigenvalues --    0.49802   0.50654   0.51352   0.52882   0.53479
 Alpha virt. eigenvalues --    0.54633   0.55184   0.55594   0.57571   0.57997
 Alpha virt. eigenvalues --    0.58618   0.58963   0.59731   0.60985   0.61654
 Alpha virt. eigenvalues --    0.61922   0.63481   0.64056   0.65498   0.66022
 Alpha virt. eigenvalues --    0.66897   0.68009   0.68261   0.69436   0.71663
 Alpha virt. eigenvalues --    0.73573   0.74139   0.76220   0.77146   0.77901
 Alpha virt. eigenvalues --    0.78162   0.79451   0.80459   0.82853   0.83964
 Alpha virt. eigenvalues --    0.84314   0.85184   0.85940   0.87405   0.88280
 Alpha virt. eigenvalues --    0.88395   0.89052   0.90685   0.92253   0.92627
 Alpha virt. eigenvalues --    0.93116   0.93504   0.95179   0.96340   0.98169
 Alpha virt. eigenvalues --    0.99135   1.00451   1.01303   1.02485   1.03925
 Alpha virt. eigenvalues --    1.04428   1.07032   1.08341   1.09375   1.11203
 Alpha virt. eigenvalues --    1.11888   1.12415   1.13977   1.14850   1.15900
 Alpha virt. eigenvalues --    1.20572   1.21547   1.23159   1.24414   1.27900
 Alpha virt. eigenvalues --    1.28533   1.29383   1.30254   1.33368   1.34151
 Alpha virt. eigenvalues --    1.35829   1.37403   1.38032   1.40610   1.41544
 Alpha virt. eigenvalues --    1.41840   1.44245   1.45340   1.46454   1.46563
 Alpha virt. eigenvalues --    1.49077   1.50616   1.51725   1.52296   1.54212
 Alpha virt. eigenvalues --    1.54677   1.57089   1.57648   1.59083   1.59429
 Alpha virt. eigenvalues --    1.60240   1.61958   1.62231   1.64037   1.65750
 Alpha virt. eigenvalues --    1.67195   1.68673   1.69857   1.71450   1.72542
 Alpha virt. eigenvalues --    1.73961   1.74867   1.76085   1.77439   1.82787
 Alpha virt. eigenvalues --    1.83732   1.85461   1.86396   1.87356   1.88182
 Alpha virt. eigenvalues --    1.89092   1.90211   1.92528   1.93047   1.94253
 Alpha virt. eigenvalues --    1.94781   1.96184   1.97991   1.98530   2.00797
 Alpha virt. eigenvalues --    2.02267   2.02430   2.03875   2.04998   2.05575
 Alpha virt. eigenvalues --    2.06840   2.08295   2.10757   2.12560   2.14189
 Alpha virt. eigenvalues --    2.15559   2.17281   2.18132   2.19151   2.19610
 Alpha virt. eigenvalues --    2.20529   2.21882   2.22569   2.23544   2.25274
 Alpha virt. eigenvalues --    2.27039   2.27879   2.28903   2.32399   2.33644
 Alpha virt. eigenvalues --    2.34369   2.34865   2.37251   2.39404   2.40042
 Alpha virt. eigenvalues --    2.41852   2.43149   2.45306   2.45615   2.48226
 Alpha virt. eigenvalues --    2.49233   2.49368   2.50844   2.52271   2.54131
 Alpha virt. eigenvalues --    2.55386   2.57512   2.58367   2.59584   2.61207
 Alpha virt. eigenvalues --    2.61729   2.62939   2.65358   2.65416   2.68077
 Alpha virt. eigenvalues --    2.69322   2.70992   2.71896   2.73007   2.74878
 Alpha virt. eigenvalues --    2.75002   2.75844   2.76641   2.78362   2.79302
 Alpha virt. eigenvalues --    2.79619   2.80984   2.84195   2.85497   2.85729
 Alpha virt. eigenvalues --    2.87317   2.88259   2.88430   2.90477   2.90967
 Alpha virt. eigenvalues --    2.91134   2.92547   2.94064   2.96008   2.98561
 Alpha virt. eigenvalues --    2.99479   3.00198   3.01192   3.02034   3.03212
 Alpha virt. eigenvalues --    3.04767   3.06015   3.07662   3.08363   3.08860
 Alpha virt. eigenvalues --    3.09579   3.10649   3.13668   3.14083   3.14844
 Alpha virt. eigenvalues --    3.15705   3.16194   3.16922   3.18516   3.19031
 Alpha virt. eigenvalues --    3.19484   3.21416   3.21636   3.22491   3.23253
 Alpha virt. eigenvalues --    3.24483   3.26595   3.26753   3.28292   3.30053
 Alpha virt. eigenvalues --    3.30533   3.31734   3.33064   3.34397   3.35411
 Alpha virt. eigenvalues --    3.38853   3.39269   3.40777   3.41610   3.42398
 Alpha virt. eigenvalues --    3.44274   3.44472   3.44819   3.47421   3.48654
 Alpha virt. eigenvalues --    3.49980   3.51814   3.52957   3.53726   3.54264
 Alpha virt. eigenvalues --    3.56249   3.57254   3.57922   3.60976   3.61368
 Alpha virt. eigenvalues --    3.61581   3.63180   3.65354   3.69477   3.70938
 Alpha virt. eigenvalues --    3.72787   3.76060   3.78792   3.79349   3.81350
 Alpha virt. eigenvalues --    3.83810   3.86254   3.87318   3.90568   3.92638
 Alpha virt. eigenvalues --    3.94220   3.95754   3.96399   3.98311   4.00609
 Alpha virt. eigenvalues --    4.02227   4.04670   4.07713   4.09101   4.10841
 Alpha virt. eigenvalues --    4.12209   4.13657   4.16704   4.18246   4.22139
 Alpha virt. eigenvalues --    4.23908   4.26820   4.27962   4.29471   4.30783
 Alpha virt. eigenvalues --    4.33190   4.34574   4.35224   4.41276   4.44499
 Alpha virt. eigenvalues --    4.45409   4.46839   4.47188   4.50899   4.51981
 Alpha virt. eigenvalues --    4.54699   4.65354   4.69418   4.71563   4.73983
 Alpha virt. eigenvalues --    4.79609   4.80487   4.81608   4.84793   4.87411
 Alpha virt. eigenvalues --    4.89302   4.90858   4.93361   4.96085   5.04266
 Alpha virt. eigenvalues --    5.06592   5.10636   5.11752   5.15314   5.16730
 Alpha virt. eigenvalues --    5.17661   5.19060   5.20436   5.23933   5.25191
 Alpha virt. eigenvalues --    5.26829   5.28016   5.30723   5.36963   5.42054
 Alpha virt. eigenvalues --    5.45008   5.48515   5.49076   5.53652   5.58925
 Alpha virt. eigenvalues --    5.61764   5.63565   5.69083   5.69608   5.76821
 Alpha virt. eigenvalues --    5.81572   5.85828   5.92471   6.02435   6.04607
 Alpha virt. eigenvalues --    6.16691   6.23886   6.29687   6.45351   6.57221
 Alpha virt. eigenvalues --    6.59711   6.70680   6.77562   6.83980   6.84675
 Alpha virt. eigenvalues --    6.84977   6.85366   6.85710   6.85752   6.86089
 Alpha virt. eigenvalues --    6.87147   6.92432   6.92575   6.96733   6.97833
 Alpha virt. eigenvalues --    6.98891   6.99302   6.99385   7.01351   7.07502
 Alpha virt. eigenvalues --    7.08780   7.09549   7.11416   7.13805   7.15116
 Alpha virt. eigenvalues --    7.21555   7.25107   7.26838   7.28686   7.31949
 Alpha virt. eigenvalues --    7.32863   7.38490   7.45264   7.46377   7.48010
 Alpha virt. eigenvalues --    7.68052   7.89501   8.31108   8.32415   8.36260
 Alpha virt. eigenvalues --    8.44635   8.46310   8.47488   8.53272   8.56837
 Alpha virt. eigenvalues --    8.69451   8.69767   8.77647   8.79609   8.82509
 Alpha virt. eigenvalues --    8.86236   8.95521   8.96907   9.00132   9.01494
 Alpha virt. eigenvalues --    9.08334   9.12165  22.46441  22.49968  22.56050
 Alpha virt. eigenvalues --   22.85044  22.85567  23.01989  23.07839  23.29143
 Alpha virt. eigenvalues --   32.24043  32.54864  44.20983  44.45085  57.25703
 Alpha virt. eigenvalues --   57.33980  57.49885  57.52975
          Condensed to atoms (all electrons):
               1          2          3          4          5          6
     1  H    0.476674   0.009462  -0.008222   0.337765  -0.023585  -0.020743
     2  O    0.009462   8.111782   0.621196  -0.154298   0.007142   0.001176
     3  C   -0.008222   0.621196   4.632464   0.050676   0.004068  -0.013816
     4  N    0.337765  -0.154298   0.050676   6.806006   0.333273   0.240685
     5  H   -0.023585   0.007142   0.004068   0.333273   0.467669  -0.025726
     6  C   -0.020743   0.001176  -0.013816   0.240685  -0.025726   4.886335
     7  H    0.008583   0.000315  -0.004359  -0.043848  -0.004000   0.417713
     8  H   -0.004085   0.015536  -0.000166  -0.044599   0.008658   0.413746
     9  H   -0.008030  -0.000352   0.002789  -0.025334  -0.007460   0.417943
    10  C    0.008447  -0.065901   0.311634  -0.061582  -0.004968  -0.011322
    11  H   -0.000639   0.001559  -0.034358   0.016035  -0.000639  -0.000586
    12  H    0.001099  -0.000221  -0.043595  -0.020259   0.000121  -0.000850
    13  H    0.000405   0.005393  -0.042535  -0.002047  -0.002286  -0.001146
    14  O   -0.004176  -0.082873   0.291907  -0.045086   0.002680   0.003448
    15  C    0.003321  -0.035106  -0.110335   0.017750  -0.000832  -0.000975
    16  C   -0.019381   0.023893  -0.005938  -0.014663   0.002112   0.002220
    17  C   -0.001299   0.026691  -0.001677   0.007021  -0.000482  -0.000202
    18  C   -0.003589  -0.001900   0.003826  -0.000614  -0.000025   0.000227
    19  C    0.000320  -0.001449   0.000490   0.000154  -0.000019  -0.000031
    20  N   -0.000009  -0.000472   0.000219   0.000004  -0.000003  -0.000003
    21  F   -0.000001  -0.000000   0.000029  -0.000000   0.000000   0.000000
    22  F    0.000006  -0.000880   0.007806  -0.000020  -0.000000   0.000004
    23  F    0.011960  -0.000637  -0.002687  -0.023947   0.001001   0.001645
    24  F    0.000080  -0.000002   0.000046  -0.000016  -0.000002  -0.000001
               7          8          9         10         11         12
     1  H    0.008583  -0.004085  -0.008030   0.008447  -0.000639   0.001099
     2  O    0.000315   0.015536  -0.000352  -0.065901   0.001559  -0.000221
     3  C   -0.004359  -0.000166   0.002789   0.311634  -0.034358  -0.043595
     4  N   -0.043848  -0.044599  -0.025334  -0.061582   0.016035  -0.020259
     5  H   -0.004000   0.008658  -0.007460  -0.004968  -0.000639   0.000121
     6  C    0.417713   0.413746   0.417943  -0.011322  -0.000586  -0.000850
     7  H    0.533496  -0.022167  -0.025429  -0.002075  -0.000673   0.000726
     8  H   -0.022167   0.511894  -0.025489  -0.001322  -0.000300   0.000242
     9  H   -0.025429  -0.025489   0.522542   0.000276   0.000071   0.000924
    10  C   -0.002075  -0.001322   0.000276   4.996281   0.383507   0.450894
    11  H   -0.000673  -0.000300   0.000071   0.383507   0.531554  -0.021985
    12  H    0.000726   0.000242   0.000924   0.450894  -0.021985   0.503881
    13  H   -0.000176   0.000029   0.000034   0.401499  -0.012753  -0.023227
    14  O    0.000035   0.000285  -0.000103  -0.045836   0.001143   0.002184
    15  C    0.000178  -0.000296   0.000015   0.000584  -0.000765  -0.000099
    16  C   -0.000010   0.000321  -0.000129   0.000133  -0.000055  -0.000054
    17  C   -0.000023  -0.000155   0.000010  -0.000112   0.000491  -0.000036
    18  C   -0.000002   0.000005  -0.000004   0.000042  -0.000001  -0.000002
    19  C   -0.000001   0.000003   0.000001  -0.000127   0.000015   0.000002
    20  N    0.000000   0.000000  -0.000000  -0.000001  -0.000000   0.000000
    21  F    0.000000  -0.000000  -0.000000   0.000000  -0.000000  -0.000000
    22  F   -0.000000   0.000000   0.000000  -0.000682   0.000075   0.000007
    23  F   -0.000102  -0.000025   0.000186  -0.000055   0.000004  -0.000018
    24  F   -0.000000   0.000000   0.000000  -0.000000   0.000000   0.000000
              13         14         15         16         17         18
     1  H    0.000405  -0.004176   0.003321  -0.019381  -0.001299  -0.003589
     2  O    0.005393  -0.082873  -0.035106   0.023893   0.026691  -0.001900
     3  C   -0.042535   0.291907  -0.110335  -0.005938  -0.001677   0.003826
     4  N   -0.002047  -0.045086   0.017750  -0.014663   0.007021  -0.000614
     5  H   -0.002286   0.002680  -0.000832   0.002112  -0.000482  -0.000025
     6  C   -0.001146   0.003448  -0.000975   0.002220  -0.000202   0.000227
     7  H   -0.000176   0.000035   0.000178  -0.000010  -0.000023  -0.000002
     8  H    0.000029   0.000285  -0.000296   0.000321  -0.000155   0.000005
     9  H    0.000034  -0.000103   0.000015  -0.000129   0.000010  -0.000004
    10  C    0.401499  -0.045836   0.000584   0.000133  -0.000112   0.000042
    11  H   -0.012753   0.001143  -0.000765  -0.000055   0.000491  -0.000001
    12  H   -0.023227   0.002184  -0.000099  -0.000054  -0.000036  -0.000002
    13  H    0.524324   0.006672   0.000741  -0.000356  -0.000110   0.000005
    14  O    0.006672   7.887098   0.280538  -0.023987  -0.029025   0.002713
    15  C    0.000741   0.280538   5.286108   0.238401   0.233408  -0.003665
    16  C   -0.000356  -0.023987   0.238401   5.201900   0.055783   0.404472
    17  C   -0.000110  -0.029025   0.233408   0.055783   5.094624  -0.037023
    18  C    0.000005   0.002713  -0.003665   0.404472  -0.037023   4.545772
    19  C    0.000007   0.004285  -0.021278  -0.031696   0.423634  -0.051528
    20  N    0.000001   0.000182   0.026247  -0.133164  -0.127984   0.561700
    21  F    0.000000  -0.000036   0.005457  -0.001081  -0.080840  -0.002165
    22  F    0.000013   0.000165  -0.065591   0.005052   0.301832   0.000278
    23  F   -0.000039   0.001170  -0.042662   0.235318   0.005223  -0.024553
    24  F    0.000000  -0.000035   0.005360  -0.086205  -0.001077   0.366735
              19         20         21         22         23         24
     1  H    0.000320  -0.000009  -0.000001   0.000006   0.011960   0.000080
     2  O   -0.001449  -0.000472  -0.000000  -0.000880  -0.000637  -0.000002
     3  C    0.000490   0.000219   0.000029   0.007806  -0.002687   0.000046
     4  N    0.000154   0.000004  -0.000000  -0.000020  -0.023947  -0.000016
     5  H   -0.000019  -0.000003   0.000000  -0.000000   0.001001  -0.000002
     6  C   -0.000031  -0.000003   0.000000   0.000004   0.001645  -0.000001
     7  H   -0.000001   0.000000   0.000000  -0.000000  -0.000102  -0.000000
     8  H    0.000003   0.000000  -0.000000   0.000000  -0.000025   0.000000
     9  H    0.000001  -0.000000  -0.000000   0.000000   0.000186   0.000000
    10  C   -0.000127  -0.000001   0.000000  -0.000682  -0.000055  -0.000000
    11  H    0.000015  -0.000000  -0.000000   0.000075   0.000004   0.000000
    12  H    0.000002   0.000000  -0.000000   0.000007  -0.000018   0.000000
    13  H    0.000007   0.000001   0.000000   0.000013  -0.000039   0.000000
    14  O    0.004285   0.000182  -0.000036   0.000165   0.001170  -0.000035
    15  C   -0.021278   0.026247   0.005457  -0.065591  -0.042662   0.005360
    16  C   -0.031696  -0.133164  -0.001081   0.005052   0.235318  -0.086205
    17  C    0.423634  -0.127984  -0.080840   0.301832   0.005223  -0.001077
    18  C   -0.051528   0.561700  -0.002165   0.000278  -0.024553   0.366735
    19  C    4.571297   0.543712   0.360236  -0.036370   0.000176  -0.002390
    20  N    0.543712   6.451984  -0.062607   0.004037   0.003705  -0.062611
    21  F    0.360236  -0.062607   8.931072   0.002178   0.000001  -0.000014
    22  F   -0.036370   0.004037   0.002178   8.952660  -0.000021   0.000001
    23  F    0.000176   0.003705   0.000001  -0.000021   9.009908   0.001879
    24  F   -0.002390  -0.062611  -0.000014   0.000001   0.001879   8.930223
 Mulliken charges:
               1
     1  H    0.235638
     2  O   -0.480055
     3  C    0.340538
     4  N   -0.373056
     5  H    0.243303
     6  C   -0.309740
     7  H    0.141820
     8  H    0.147882
     9  H    0.147538
    10  C   -0.359312
    11  H    0.138302
    12  H    0.150265
    13  H    0.145551
    14  O   -0.253350
    15  C    0.183496
    16  C    0.147115
    17  C    0.131327
    18  C    0.239295
    19  C    0.240556
    20  N   -0.204937
    21  F   -0.152230
    22  F   -0.170549
    23  F   -0.177427
    24  F   -0.151970
 Sum of Mulliken charges =  -0.00000
 Mulliken charges with hydrogens summed into heavy atoms:
               1
     2  O   -0.480055
     3  C    0.340538
     4  N    0.105885
     6  C    0.127500
    10  C    0.074806
    14  O   -0.253350
    15  C    0.183496
    16  C    0.147115
    17  C    0.131327
    18  C    0.239295
    19  C    0.240556
    20  N   -0.204937
    21  F   -0.152230
    22  F   -0.170549
    23  F   -0.177427
    24  F   -0.151970
 APT charges:
               1
     1  H    0.063131
     2  O   -0.412128
     3  C    0.303352
     4  N   -0.431962
     5  H    0.623931
     6  C   -1.353447
     7  H    0.615716
     8  H    0.206630
     9  H    0.542327
    10  C   -1.375103
    11  H    0.492459
    12  H    0.533817
    13  H    0.397146
    14  O   -0.245648
    15  C   -0.110251
    16  C   -0.199338
    17  C   -0.247812
    18  C    0.051410
    19  C    0.098900
    20  N    0.036548
    21  F    0.247117
    22  F    0.031900
    23  F   -0.046041
    24  F    0.177345
 Sum of APT charges =  -0.00000
 APT charges with hydrogens summed into heavy atoms:
               1
     2  O   -0.412128
     3  C    0.303352
     4  N    0.255099
     6  C    0.011226
    10  C    0.048320
    14  O   -0.245648
    15  C   -0.110251
    16  C   -0.199338
    17  C   -0.247812
    18  C    0.051410
    19  C    0.098900
    20  N    0.036548
    21  F    0.247117
    22  F    0.031900
    23  F   -0.046041
    24  F    0.177345
 Electronic spatial extent (au):  <R**2>=           3594.4718
 Charge=             -0.0000 electrons
 Dipole moment (field-independent basis, Debye):
    X=             -5.4125    Y=              1.7859    Z=             -2.9674  Tot=              6.4257
 Quadrupole moment (field-independent basis, Debye-Ang):
   XX=            -80.4575   YY=            -92.7846   ZZ=            -92.1917
   XY=             -3.9854   XZ=              0.6811   YZ=              1.6151
 Traceless Quadrupole moment (field-independent basis, Debye-Ang):
   XX=              8.0204   YY=             -4.3067   ZZ=             -3.7138
   XY=             -3.9854   XZ=              0.6811   YZ=              1.6151
 Octapole moment (field-independent basis, Debye-Ang**2):
  XXX=            -84.5898  YYY=              1.4353  ZZZ=             -8.2762  XYY=            -14.1810
  XXY=              2.2773  XXZ=            -16.8055  XZZ=              9.3639  YZZ=              8.4631
  YYZ=             -1.6977  XYZ=             -4.5921
 Hexadecapole moment (field-independent basis, Debye-Ang**3):
 XXXX=          -2693.3142 YYYY=          -1188.4619 ZZZZ=           -290.9480 XXXY=            -52.8516
 XXXZ=             -7.6654 YYYX=            -31.7285 YYYZ=             -8.2532 ZZZX=             27.7531
 ZZZY=             -5.4211 XXYY=           -659.0637 XXZZ=           -503.5042 YYZZ=           -244.5706
 XXYZ=             -0.7947 YYXZ=              2.6020 ZZXY=            -21.0037
 N-N= 1.214868319526D+03 E-N=-4.711057977156D+03  KE= 9.640413562624D+02
  Exact polarizability:   0.000   0.000   0.000   0.000   0.000   0.000
 Approx polarizability: 191.091  -8.742 207.330  22.440   0.411 135.623
 No NMR shielding tensors so no spin-rotation constants.
 Leave Link  601 at Tue Jul 16 00:02:52 2024, MaxMem=  8053063680 cpu:               2.3 elap:               0.2
 (Enter /share/apps/g16.b01_avx2/g16/l701.exe)
 ... and contract with generalized density number  0.
 Compute integral second derivatives.
 R6Disp: Adding Grimme-D3 dispersion energy 2nd derivatives to the Hessian.
   1 Symmetry operations used in ECPInt.
 ECPInt:  NShTT=   21736 NPrTT=   68272 LenC2=   19636 LenP2D=   44757.
 LDataN:  DoStor=T MaxTD1= 8 Len=  415
 D2PCM: PCM CHGder 2nd derivatives, FixD1E=F FixD2E=F DoIter=F DoCFld=F I1PDM=0
 GePol: Maximum number of non-zero 2nd derivatives   =     211
 Leave Link  701 at Tue Jul 16 00:02:56 2024, MaxMem=  8053063680 cpu:              70.7 elap:               4.4
 (Enter /share/apps/g16.b01_avx2/g16/l702.exe)
 L702 exits ... SP integral derivatives will be done elsewhere.
 Leave Link  702 at Tue Jul 16 00:02:57 2024, MaxMem=  8053063680 cpu:               0.2 elap:               0.0
 (Enter /share/apps/g16.b01_avx2/g16/l703.exe)
 Integral derivatives from FoFJK, PRISM(SPDF).
 Compute integral second derivatives, UseDBF=F ICtDFT=           0.
 Calling FoFJK, ICntrl=    100147 FMM=F ISym2X=0 I1Cent= 0 IOpClX= 0 NMat=1 NMatS=1 NMatT=0.
 FoFJK:  IHMeth= 1 ICntrl=  100147 DoSepK=F KAlg= 0 I1Cent=           0 FoldK=F
 IRaf=         0 NMat=       1 IRICut=       1 DoRegI=T DoRafI=F ISym2E= 0 IDoP0=0 IntGTp=1.
 FoFCou: FMM=F IPFlag=           0 FMFlag=      100000 FMFlg1=         800
         NFxFlg=           0 DoJE=F BraDBF=F KetDBF=F FulRan=T
         wScrn=  0.000000 ICntrl=    100147 IOpCl=  0 I1Cent=           0 NGrid=           0
         NMat0=    1 NMatS0=      1 NMatT0=    0 NMatD0=    1 NMtDS0=    0 NMtDT0=    0
 Symmetry not used in FoFCou.
 Leave Link  703 at Tue Jul 16 00:07:01 2024, MaxMem=  8053063680 cpu:            3911.5 elap:             244.5
 (Enter /share/apps/g16.b01_avx2/g16/l716.exe)
 Dipole        =-2.12943289D+00 7.02622036D-01-1.16747079D+00
 Polarizability= 0.00000000D+00 0.00000000D+00 0.00000000D+00
                 0.00000000D+00 0.00000000D+00 0.00000000D+00
 ***** Axes restored to original set *****
 -------------------------------------------------------------------
 Center     Atomic                   Forces (Hartrees/Bohr)
 Number     Number              X              Y              Z
 -------------------------------------------------------------------
      1        1          -0.003229416    0.005050221    0.000619331
      2        8           0.017909744   -0.041920460   -0.046476763
      3        6          -0.028878738    0.044091352    0.073274090
      4        7          -0.027160534    0.024186531    0.006080104
      5        1          -0.002530318    0.010402757   -0.010799978
      6        6           0.017072743   -0.000561282   -0.018332662
      7        1          -0.012836053   -0.005147584   -0.001335887
      8        1           0.006394432   -0.005017023    0.011534809
      9        1          -0.007598523    0.014146374    0.004612395
     10        6           0.042730856   -0.013419264   -0.016276203
     11        1          -0.001433334   -0.017761294   -0.003407834
     12        1           0.000089620   -0.000709248    0.009210579
     13        1          -0.004728212    0.001124508   -0.013130557
     14        8           0.025487139   -0.006197438    0.030151764
     15        6          -0.025739295   -0.010856000   -0.011839792
     16        6           0.004917312    0.009958010   -0.000101309
     17        6           0.007368721   -0.013765234   -0.001792283
     18        6           0.011514101   -0.026294442   -0.001826815
     19        6          -0.011305928    0.026723104    0.000731882
     20        7          -0.013439539   -0.004848950   -0.006545675
     21        9          -0.020766152    0.022351015   -0.003154372
     22        9          -0.000264185    0.021969953    0.005897755
     23        9           0.024808776   -0.003746060   -0.001176812
     24        9           0.001616782   -0.029759546   -0.005915768
 -------------------------------------------------------------------
 Cartesian Forces:  Max     0.073274090 RMS     0.019006698
 FormGI is forming the generalized inverse of G from B-inverse, IUseBI=4.
 Leave Link  716 at Tue Jul 16 00:07:01 2024, MaxMem=  8053063680 cpu:               0.3 elap:               0.0
 (Enter /share/apps/g16.b01_avx2/g16/l103.exe)

 GradGradGradGradGradGradGradGradGradGradGradGradGradGradGradGradGradGrad
 Berny optimization.
 Red2BG is reusing G-inverse.
 Internal  Forces:  Max     0.045193363 RMS     0.016351616
 Search for a saddle point.
 Step number   1 out of a maximum of  122
 All quantities printed in internal units (Hartrees-Bohrs-Radians)
 Swapping is turned off.
 Second derivative matrix not updated -- analytic derivatives used.
 ITU=  0
     Eigenvalues ---   -0.03664  -0.01598  -0.00139   0.00392   0.00553
     Eigenvalues ---    0.01137   0.01417   0.01650   0.01799   0.02045
     Eigenvalues ---    0.02140   0.02560   0.02671   0.02759   0.03185
     Eigenvalues ---    0.03846   0.03991   0.04173   0.04520   0.04913
     Eigenvalues ---    0.05324   0.05622   0.05731   0.07080   0.08831
     Eigenvalues ---    0.09082   0.09524   0.10634   0.11668   0.12829
     Eigenvalues ---    0.13873   0.14642   0.15308   0.16440   0.16712
     Eigenvalues ---    0.18120   0.18345   0.18894   0.19617   0.20060
     Eigenvalues ---    0.21841   0.24089   0.26874   0.28388   0.30272
     Eigenvalues ---    0.31866   0.32135   0.32486   0.34740   0.36925
     Eigenvalues ---    0.38422   0.38608   0.38874   0.39051   0.39242
     Eigenvalues ---    0.39807   0.40256   0.42793   0.43833   0.44778
     Eigenvalues ---    0.46912   0.48382   0.49456   0.51585   0.59061
     Eigenvalues ---    0.70995
 Eigenvectors required to have negative eigenvalues:
                          D11       D9        D4        D5        A1
   1                   -0.34538   0.28563  -0.28388  -0.25902  -0.25742
                          D8        D7        D6        A21       D2
   1                    0.23979   0.21493  -0.21317   0.20718  -0.20344
 Eigenvalue     2 is  -1.60D-02 should be greater than     0.000000 Eigenvector:
                          A1        D1        D3        D39       D40
   1                   -0.44186  -0.29471   0.28315   0.27561   0.26557
                          R11       D10       D2        A21       D8
   1                   -0.23885  -0.23663  -0.20908  -0.16021  -0.15296
 Eigenvalue     3 is  -1.39D-03 should be greater than     0.000000 Eigenvector:
                          D21       R11       D18       D19       D12
   1                   -0.40208   0.33145   0.28684   0.27594  -0.27131
                          D20       D14       D13       D15       A14
   1                    0.26020  -0.24866  -0.24568  -0.24293  -0.22081
 RFO step:  Lambda0=5.624460668D-03 Lambda=-7.79670883D-02.
[...]
 2,0.00286747,0.00024638,0.00129885,0.00158834,0.00370624,-0.00263458,0
 .00004615,-0.00078754,0.00052227,0.00011823,-0.00005693,0.00003784,-0.
 00004877,-0.00036416,-0.00034813,-0.00012579,-0.00000377,0.00014555,-0
 .00002535,0.00002776,0.00007986,0.00004879,0.00001827,0.00000365,0.000
 52465,-0.00017668,-0.00058426,-0.00003279,-0.00003023,-0.00001673,0.00
 017066,0.00023531,0.00009278,-0.00001631,-0.00003864,0.00007862,-0.019
 23322,-0.00901548,-0.00896594,-0.09891121,-0.30429972,-0.02382739,-0.0
 0346175,0.71634335,-0.00020703,-0.00048278,0.00031198,0.00123388,-0.00
 052688,0.00294670,0.00505814,0.00147690,-0.00812165,-0.00042797,0.0003
 5225,-0.00000717,-0.00009225,-0.00000528,0.00003183,0.00001258,0.00020
 136,-0.00007412,0.00000772,-0.00001388,-0.00002643,0.00002360,-0.00003
 156,-0.00001635,-0.00006545,-0.00000461,0.00005370,-0.00092950,-0.0000
 1521,0.00077593,0.00003659,0.00001844,0.00001521,-0.00020817,-0.000236
 54,-0.00014436,-0.00001592,0.00000874,-0.00000674,-0.02379747,-0.01551
 651,0.00675907,-0.01529506,-0.00016167,-0.06736070,0.18237552,-0.00954
 791,0.18999738,0.00003512,-0.00032188,-0.00014914,0.00015305,-0.002970
 38,0.00379767,0.00555841,0.00988287,-0.01041945,-0.00147919,-0.0005018
 1,0.00163544,0.00027799,-0.00027000,0.00004493,-0.00007019,0.00077308,
 -0.00023262,-0.00003026,-0.00004087,0.00001713,-0.00002029,-0.00001044
 ,0.00001749,-0.00023830,0.00000590,0.00022555,-0.00046208,0.00005526,0
 .00052119,-0.00007094,-0.00012065,-0.00001494,-0.00017109,-0.00024035,
 -0.00009594,0.00018802,0.00009397,0.00012542,-0.05768521,0.01168960,-0
 .01992691,-0.19109204,0.05754441,-0.04689876,0.06576052,0.04867152,0.0
 2369478,0.65749480,0.00051771,-0.00033521,-0.00015120,0.00067486,-0.00
 336997,0.00310609,0.00167006,0.00466692,-0.00769030,-0.00095835,-0.000
 06992,0.00094781,0.00016600,-0.00020874,0.00005347,0.00003089,0.000421
 94,-0.00030240,-0.00005273,-0.00003168,0.00004070,-0.00000012,-0.00002
 532,0.00001891,-0.00016231,0.00002444,0.00017223,-0.00065925,-0.000063
 83,0.00088216,-0.00026722,-0.00031040,-0.00010412,-0.00019873,-0.00034
 875,-0.00010981,0.00017104,0.00007751,0.00004777,-0.01215814,0.0084156
 8,-0.00046510,0.13875143,-0.22044508,0.04985324,0.00819790,-0.04864542
 ,0.00360625,0.01444715,0.73629370,-0.00012004,-0.00021652,-0.00006238,
 0.00139944,0.00017704,0.00215911,0.00469287,0.00432474,-0.00589776,-0.
 00156921,0.00019330,0.00063455,0.00005201,0.00003873,0.00010053,0.0000
 4227,0.00056871,-0.00030391,-0.00003222,-0.00003223,0.00000633,0.00003
 992,-0.00006592,0.00000012,-0.00016759,-0.00001449,0.00017781,-0.00027
 581,0.00004294,0.00011539,-0.00004733,-0.00005041,-0.00001582,-0.00010
 303,-0.00008726,-0.00002829,-0.00002784,-0.00002634,0.00000644,-0.0300
 3944,0.00225732,0.00192909,-0.04473721,0.02287064,-0.07878819,0.022599
 72,0.01766074,0.00707438,0.18451433,-0.00187819,0.19429000,-0.00046092
 ,0.00047287,0.00005639,-0.00023363,0.00076101,-0.00343605,-0.00726312,
 -0.00292891,0.00831499,0.00097608,-0.00063595,-0.00040255,-0.00006536,
 0.00007857,-0.00012091,-0.00010816,-0.00040075,0.00036073,0.00005075,0
 .00004304,-0.00004188,-0.00002366,0.00007336,-0.00000242,0.00016049,-0
 .00001515,-0.00016879,0.00075782,0.00005962,-0.00071659,0.00000207,0.0
 0000726,0.00000512,0.00027358,0.00024706,0.00012520,-0.00001732,-0.000
 03575,-0.00000873,0.01531464,0.00897293,0.00033465,-0.00094993,-0.0975
 1789,-0.00235904,-0.29745362,0.00528563,-0.07863034,-0.07332870,0.0084
 4588,-0.02504472,0.68575584,-0.00059344,0.00005927,0.00031281,0.001467
 87,0.00042453,-0.00067079,-0.00343476,-0.00199235,0.00089311,0.0008975
 1,-0.00034131,-0.00044605,-0.00005855,0.00001881,-0.00009033,-0.000077
 05,-0.00025811,0.00032346,0.00005637,0.00002953,-0.00005167,-0.0000183
 4,0.00004377,0.00000212,0.00012910,-0.00002352,-0.00012136,0.00001959,
 -0.00001799,-0.00005283,0.00000272,0.00000776,0.00001678,0.00007914,0.
 00004563,0.00004610,0.00001217,-0.00000783,0.00003994,0.00524290,-0.00
 314481,0.00151470,-0.03904858,0.01500404,-0.01312090,-0.08865941,-0.10
 805131,-0.03057777,0.02026318,-0.00790420,0.00763427,-0.01025748,0.725
 01541,-0.00020502,0.00019696,0.00005081,-0.00001311,0.00043129,-0.0009
 8179,-0.00302364,-0.00187006,0.00177847,0.00040299,-0.00032977,-0.0002
 7334,-0.00002830,0.00004794,-0.00002895,-0.00001353,-0.00018477,0.0001
 2808,0.00002041,0.00001060,-0.00001638,-0.00000705,0.00002015,-0.00000
 160,0.00006597,-0.00000052,-0.00006961,0.00005542,-0.00002644,-0.00001
 166,0.00000650,-0.00001383,0.00000241,0.00005358,0.00002215,-0.0000345
 3,-0.00003384,-0.00000968,-0.00003300,0.00332959,0.00457522,0.00698379
 ,0.00011927,-0.03434355,-0.00006362,-0.07686358,0.00288363,-0.09458051
 ,-0.02475200,0.00322704,-0.00835735,0.18014319,-0.01475169,0.22253500,
 -0.00028074,0.00032162,0.00020502,0.00268219,0.00099546,-0.00163451,-0
 .00687239,-0.00361811,0.00427203,0.00165724,-0.00052937,-0.00072921,-0
 .00006910,0.00001757,-0.00015753,-0.00010727,-0.00064181,0.00044072,0.
 00005473,0.00005720,-0.00003700,-0.00003478,0.00007488,0.00002179,0.00
 024267,-0.00002522,-0.00022407,0.00064491,-0.00009528,-0.00053880,-0.0
 0005385,-0.00002894,0.00001501,0.00027933,0.00022309,0.00014426,-0.000
 01224,-0.00003289,0.00005465,0.01492043,0.00573278,-0.00035089,-0.0508
 1439,0.06372044,-0.01755702,-0.04901627,-0.03013296,-0.01737652,-0.289
 21255,-0.10535236,-0.07313715,0.05606511,0.01662441,0.02074458,0.66996
 731,0.00039496,-0.00002111,-0.00009040,0.00042968,0.00018443,0.0003863
 4,-0.00005882,-0.00052458,-0.00043495,0.00014246,0.00020479,-0.0001676
 7,-0.00002499,0.00001242,0.00002552,0.00004095,-0.00010294,-0.00008345
 ,-0.00002060,-0.00000375,0.00002249,0.00000498,-0.00000833,0.00000659,
 0.00001188,0.00000883,-0.00000212,-0.00010162,-0.00004345,0.00011373,0
 .00002256,0.00002548,-0.00000051,-0.00003821,-0.00001108,-0.00001599,-
 0.00002318,-0.00000547,-0.00002194,0.00384586,-0.00648815,0.00096526,0
 .00551395,0.06958666,0.00224829,-0.04278147,-0.03481620,-0.01406446,-0
 .01103762,-0.11721998,-0.00303285,0.05798030,-0.09594407,0.02128266,0.
 02127939,0.73943893,-0.00008558,0.00009519,0.00007808,0.00153766,0.000
 28787,-0.00041508,-0.00348478,0.00003276,0.00016005,0.00032051,-0.0002
 6522,-0.00001467,-0.00002616,-0.00000789,-0.00004505,-0.00005850,-0.00
 010094,0.00013017,0.00001887,0.00001550,-0.00001329,-0.00001540,0.0000
 2788,0.00000853,0.00005735,-0.00001171,-0.00004640,0.00020980,-0.00007
 036,-0.00008384,-0.00003089,-0.00001551,-0.00000864,0.00010538,0.00004
 716,0.00004263,-0.00000560,-0.00000303,0.00001725,0.00253740,0.0003768
 3,0.00611448,-0.01623582,0.02105753,-0.00551092,-0.01649380,-0.0099016
 0,-0.00551688,-0.07561093,-0.03483620,-0.09326945,0.02109973,0.0074824
 1,-0.00079902,0.17482982,-0.00345561,0.22141020,0.00036433,-0.00022411
 ,-0.00018092,-0.00028981,-0.00057860,0.00200156,0.00481041,0.00262830,
 -0.00452330,-0.00085887,0.00035822,0.00042875,0.00006215,-0.00003509,0
 .00009306,0.00006510,0.00032220,-0.00029046,-0.00004339,-0.00003290,0.
 00003661,0.00001771,-0.00004856,-0.00000006,-0.00013119,0.00001367,0.0
 0013066,-0.00040387,0.00000711,0.00040511,0.00001567,0.00000539,-0.000
 00573,-0.00017568,-0.00014318,-0.00007980,0.00001427,0.00002409,-0.000
 00482,-0.00981651,-0.00489855,-0.00166224,0.00438478,0.02012161,0.0032
 7152,-0.03903887,0.01097723,-0.01732384,0.01078183,-0.03067839,-0.0009
 1512,-0.23996346,0.13802241,-0.06375162,-0.14118602,-0.09858825,-0.025
 09754,0.38831391,-0.00028754,-0.00001968,0.00002259,-0.00149588,-0.000
 09030,-0.00054912,0.00088535,0.00026554,0.00115571,-0.00043552,0.00003
 288,0.00014620,0.00000384,0.00002668,0.00002407,0.00001054,0.00018183,
 -0.00002889,0.00000712,-0.00001019,-0.00001093,0.00000659,-0.00001168,
 -0.00001692,-0.00005780,0.00000344,0.00003834,-0.00005103,0.00008243,0
 .00002559,0.00004075,0.00003292,0.00000676,-0.00004481,-0.00002295,-0.
 00003509,0.00000013,0.00000802,-0.00002894,-0.00207177,0.00165556,-0.0
 0003890,0.02007817,-0.07803667,0.00612692,0.07454658,0.05059154,0.0251
 8845,-0.09316470,-0.00414461,-0.03204515,0.11594194,-0.23836674,0.0440
 3459,-0.07644947,-0.34909542,-0.02027241,-0.07895395,0.77031581,0.0001
 3378,-0.00005513,-0.00008566,0.00003007,-0.00022083,0.00077070,0.00171
 826,0.00091968,-0.00173387,-0.00029873,0.00012364,0.00017343,0.0000208
 7,-0.00001227,0.00002559,0.00001242,0.00011428,-0.00010140,-0.00001620
 ,-0.00000926,0.00001216,0.00000593,-0.00001688,0.00000126,-0.00004562,
 0.00000108,0.00004475,-0.00013212,-0.00000153,0.00014012,0.00000147,0.
 00000132,0.00000091,-0.00006037,-0.00004535,-0.00002823,0.00000843,0.0
 0000959,0.00000060,-0.00343208,-0.00166712,-0.00076235,0.00207071,0.00
 818892,-0.00106126,-0.01868671,0.00321363,0.00739271,0.00029362,-0.010
 25961,0.01361021,-0.06417845,0.05123435,-0.08548598,-0.02502347,-0.027
 55173,-0.07042964,0.10371558,-0.04143083,0.12742194,0.00037910,-0.0001
 9796,-0.00018411,-0.00110366,-0.00046101,0.00140170,0.00419628,0.00153
 495,-0.00353242,-0.00089602,0.00034481,0.00047328,0.00007454,-0.000052
 81,0.00007721,0.00006593,0.00031920,-0.00028606,-0.00004395,-0.0000314
 1,0.00003298,0.00002034,-0.00004212,-0.00000504,-0.00013273,0.00001911
 ,0.00012873,-0.00039538,-0.00002673,0.00033051,0.00001166,0.00001289,0
 .00000120,-0.00016927,-0.00013033,-0.00006661,0.00001419,0.00003125,-0
 .00000310,-0.00809344,0.00001196,-0.00002430,0.00470390,-0.01355007,-0
 .00051223,0.00868449,0.00168672,0.00289110,-0.04310121,0.05016233,-0.0
 1952846,-0.00908593,-0.00515184,-0.00596174,-0.20166872,0.11420545,-0.
 05657279,0.01859664,0.01088175,0.00662716,0.22775873,-0.00038674,0.000
 11684,0.00016435,0.00085862,0.00032408,-0.00089571,-0.00276195,-0.0009
 3120,0.00210597,0.00054365,-0.00025422,-0.00026906,-0.00004193,0.00002
 848,-0.00005968,-0.00005253,-0.00017743,0.00021336,0.00003638,0.000021
 88,-0.00002983,-0.00001413,0.00002836,0.00000260,0.00008440,-0.0000159
 3,-0.00008246,0.00028568,0.00002062,-0.00022643,-0.00000823,-0.0000080
 4,0.00000378,0.00011978,0.00008769,0.00004905,-0.00000448,-0.00001750,
 0.00000990,0.00416992,0.00167672,-0.00005865,-0.00637694,0.00102173,-0
 .00211412,-0.00394992,0.00043943,-0.00140011,0.01063313,-0.01225346,0.
 00422682,0.00406863,0.00390243,0.00130976,0.12203312,-0.17489412,0.044
 40858,0.03090982,-0.07208653,0.01208497,-0.16413100,0.25224764,0.00013
 339,-0.00006453,-0.00006252,-0.00067568,-0.00011217,0.00038444,0.00164
 678,0.00015411,-0.00081968,-0.00025735,0.00018508,0.00009687,0.0000253
 8,-0.00001625,0.00002567,0.00003205,0.00007802,-0.00009428,-0.00001515
 ,-0.00001037,0.00001176,0.00000727,-0.00001589,-0.00000234,-0.00003940
 ,0.00000897,0.00003745,-0.00012891,-0.00001106,0.00009769,0.00000298,0
 .00000369,-0.00000151,-0.00006108,-0.00004101,-0.00002189,0.00000313,0
 .00001078,-0.00000436,-0.00218170,0.00030432,-0.00105196,-0.00086508,-
 0.00462248,0.00603485,0.00304598,0.00057722,0.00132314,-0.01834531,0.0
 1743266,0.00368090,-0.00642163,-0.00178736,0.00722557,-0.05712007,0.04
 144585,-0.06296893,0.00660527,0.00538372,0.00016063,0.07315884,-0.0606
 8874,0.04966579,-0.00005891,-0.00001754,0.00000756,-0.00276266,0.00268
 220,-0.00063895,0.00069050,-0.00278136,0.00284532,-0.00036050,0.000707
 22,-0.00031483,-0.00005831,0.00009445,0.00002711,0.00008917,-0.0000050
 4,-0.00009774,-0.00000586,-0.00000762,-0.00000195,0.00003388,-0.000035
 51,-0.00001621,-0.00001180,0.00000398,0.00001161,0.00013271,-0.0000537
 4,-0.00014656,0.00012681,0.00017825,0.00008332,-0.00001067,0.00007980,
 0.00000830,-0.00009978,0.00000427,-0.00003749,0.00585382,0.00277228,0.
 00349624,0.00819792,0.02286578,0.00075959,-0.00632682,-0.00023515,-0.0
 0468522,-0.08613561,-0.06932044,-0.01670204,0.00165109,0.00325158,0.00
 028042,-0.00428768,-0.04499020,-0.00278386,-0.00623623,-0.00165754,-0.
 00427811,0.00310766,-0.00101766,0.00233283,0.08600979,-0.00046614,0.00
 020120,0.00017845,-0.00104018,0.00121415,-0.00292804,-0.00281551,-0.00
 327560,0.00619422,0.00065700,-0.00006867,-0.00041246,-0.00005993,0.000
 06289,-0.00008608,-0.00004602,-0.00025373,0.00025354,0.00004382,0.0000
 2526,-0.00003560,-0.00001166,0.00003040,-0.00001422,0.00010231,-0.0000
 1341,-0.00011479,0.00058219,-0.00005346,-0.00067616,0.00016678,0.00015
 260,0.00007228,0.00017626,0.00024100,0.00009048,-0.00008319,-0.0000191
 6,-0.00002852,0.00606082,0.00981552,0.00026475,-0.02015553,-0.05488013
 ,-0.00837560,0.00177915,0.00613061,0.00002489,-0.06554583,-0.34130912,
 -0.02166743,-0.00004100,0.00795948,-0.00013873,-0.00246437,-0.03732020
 ,-0.00072508,-0.00176257,-0.00535442,-0.00063963,-0.00392558,0.0104130
 5,-0.00135197,0.08942282,0.42194639,0.00002492,0.00003503,-0.00000339,
 0.00058159,-0.00133247,-0.00027265,-0.00041110,-0.00011098,0.00047270,
 0.00050774,-0.00035028,0.00006318,0.00003171,-0.00006782,-0.00005080,-
 0.00005583,-0.00011406,0.00010828,0.00001112,0.00000909,-0.00000082,-0
 .00002323,0.00003099,0.00000077,0.00003678,0.00000292,-0.00004590,0.00
 007919,-0.00001257,-0.00009462,0.00004135,0.00006065,0.00000632,0.0000
 0599,0.00004754,0.00002060,0.00003215,0.00001046,0.00002325,0.00504954
 ,0.00092666,-0.00339704,0.00037543,0.00924541,0.00591257,-0.00467138,-
 0.00006719,0.00465056,-0.01697561,-0.02247576,-0.04329009,0.00057041,0
 .00116770,0.00039078,-0.00283965,-0.01561249,0.00292837,-0.00446017,-0
 .00042139,0.00502883,0.00231523,-0.00047767,-0.00265053,0.01924035,0.0
 3009179,0.03096329,0.00128844,-0.00003126,-0.00106092,0.00092704,-0.00
 014353,-0.00021339,-0.00336144,0.00060787,0.00154968,0.00024278,-0.000
 54782,0.00090077,0.00005384,-0.00007158,0.00005948,-0.00008605,-0.0008
 0983,-0.00062314,-0.00020206,0.00000085,0.00026340,-0.00002093,0.00004
 325,0.00007195,0.00007837,0.00006640,-0.00003582,0.00041341,-0.0001883
 9,-0.00033034,-0.00003453,-0.00007350,-0.00002991,0.00011928,0.0001511
 2,0.00006518,-0.00001873,0.00000204,0.00002154,0.00880354,-0.00079014,
 0.00358568,-0.00246645,0.00107855,-0.00333192,-0.17801387,0.13004665,-
 0.04889873,-0.00353191,-0.00500208,-0.00284405,-0.02691313,0.04787715,
 -0.01051422,0.00396512,-0.00533823,0.00146758,-0.00756504,0.00026077,-
 0.00494772,-0.00471101,0.00548305,-0.00137620,0.00125232,0.00240105,0.
 00038698,0.20739555,-0.00173102,-0.00131352,0.00064819,-0.00113121,-0.
 00009834,0.00076693,0.00341726,0.00078088,-0.00225248,-0.00094399,0.00
 071020,0.00048701,-0.00003149,-0.00000746,0.00002157,-0.00005265,0.000
 35453,-0.00008633,0.00001515,-0.00001038,-0.00001575,0.00002939,-0.000
 04084,-0.00003137,-0.00011353,-0.00001208,0.00008795,-0.00030801,0.000
 05802,0.00032483,0.00001515,0.00002491,0.00000644,-0.00012666,-0.00013
 285,-0.00006451,0.00001715,0.00002252,-0.00001562,-0.00310062,0.003352
 35,0.00061220,0.04512997,-0.04338384,0.01560710,0.12877895,-0.22789618
 ,0.04519234,-0.00690636,0.00285295,-0.00295533,0.00346849,-0.01030547,
 0.00111610,-0.00154389,0.00564654,-0.00060194,0.00054826,-0.00470591,0
 .00028852,0.00509179,-0.00540741,0.00187090,0.00115732,-0.00575656,0.0
 0050192,-0.17238214,0.27426582,0.00045790,0.00035928,-0.00051905,-0.00
 034510,0.00000877,-0.00053463,-0.00022820,-0.00068132,0.00168514,0.000
 54157,-0.00003098,-0.00030542,0.00009376,0.00002264,-0.00003111,0.0000
 8140,-0.00001089,0.00014268,0.00003062,0.00000301,-0.00003483,-0.00002
 067,0.00000555,-0.00000029,0.00002867,0.00000283,-0.00003163,0.0001564
 5,0.00005701,-0.00020977,0.00000443,0.00001478,0.00000712,0.00004228,0
 .00006098,0.00004727,0.00000554,-0.00000646,0.00000882,0.00542559,-0.0
 0038779,-0.00368829,-0.00511308,0.00017953,0.00467288,-0.04951519,0.04
 762556,-0.05342934,-0.00314034,-0.00148344,0.00532664,-0.00993706,0.01
 591335,0.00018746,0.00119162,-0.00179811,0.00065628,-0.00476644,0.0002
 6373,0.00495461,-0.00115937,0.00178304,-0.00159876,0.00032685,0.000833
 76,0.00033494,0.06391228,-0.06164414,0.04517506,0.00022135,-0.00013434
 ,-0.00009523,-0.00037781,-0.00025394,0.00111050,0.00252185,0.00049443,
 -0.00292795,-0.00040546,0.00026267,0.00018729,0.00003691,-0.00003006,0
 .00004619,0.00004293,0.00014636,-0.00015604,-0.00002246,-0.00001783,0.
 00001975,0.00001018,-0.00002628,-0.00000319,-0.00006814,0.00001356,0.0
 0006550,-0.00040320,-0.00001038,0.00036659,0.00001835,0.00001506,0.000
 00585,-0.00014039,-0.00011866,-0.00006246,0.00001300,0.00002467,-0.000
 00063,-0.00462166,-0.00373979,0.00055786,-0.00338787,0.01046363,-0.002
 88749,-0.01377649,-0.05217328,-0.00738043,0.00637984,0.00157486,0.0019
 5068,-0.10514053,-0.08664664,-0.02005429,-0.00686304,-0.00086923,-0.00
 568243,0.01828214,0.03200646,0.00646127,0.00178785,-0.00048066,0.00049
 365,-0.00079084,-0.00297469,0.00014649,0.00238546,0.00070268,0.0019264
 8,0.10429804,0.00043547,-0.00023889,-0.00017335,-0.00122840,-0.0003776
 1,0.00154760,0.00460728,0.00107631,-0.00385967,-0.00085137,0.00051217,
 0.00035580,0.00005700,-0.00004340,0.00008998,0.00008456,0.00029277,-0.
 00029960,-0.00004363,-0.00003301,0.00003701,0.00002229,-0.00005158,-0.
 00000792,-0.00013455,0.00002341,0.00012718,-0.00054103,-0.00001546,0.0
 0045929,0.00002898,0.00003195,0.00000554,-0.00021112,-0.00016109,-0.00
 008930,0.00000911,0.00003179,-0.00001386,-0.00709547,-0.00366023,0.000
 07668,0.00377707,0.00886157,0.00185333,-0.01318551,-0.04462046,-0.0034
 8445,0.00707083,0.00393255,0.00207690,-0.09407371,-0.28615294,-0.02748
 904,-0.01016530,0.00139075,-0.00356420,0.01200585,-0.07125156,0.005730
 19,0.00339866,-0.00428310,0.00126650,-0.00309817,-0.00988811,-0.001087
 48,-0.00264026,0.01100212,-0.00109070,0.10177141,0.39362205,0.00009185
 ,-0.00005711,-0.00003889,-0.00009025,-0.00013953,0.00025164,0.00078550
 ,0.00033716,-0.00069338,-0.00014330,0.00009875,0.00008457,0.00001355,-
 0.00001580,0.00001672,0.00001139,0.00005716,-0.00005565,-0.00000847,-0
 .00000582,0.00000851,0.00000150,-0.00000840,0.00000084,-0.00002516,0.0
 0000357,0.00002522,-0.00011127,-0.00000449,0.00008000,0.00000650,0.000
 00969,0.00000107,-0.00004241,-0.00002817,-0.00000906,0.00001149,0.0000
 0757,0.00000715,-0.00095618,-0.00154770,-0.00089255,-0.00341017,0.0037
 6275,0.00512343,-0.00796371,-0.01702405,0.00795166,0.00167439,0.000367
 82,0.00090172,-0.01954125,-0.02491034,-0.04854502,-0.00519359,-0.00016
 444,0.00757578,0.00637394,0.01246189,-0.00005006,0.00039830,-0.0000597
 2,0.00053199,0.00028348,-0.00080984,-0.00109861,0.00192184,0.00013548,
 -0.00281577,0.02591204,0.02753357,0.03163868\\-0.00000265,0.00000294,0
 .00000411,-0.00001159,0.00000023,0.00000729,0.00001162,-0.00000508,0.0
 0000174,0.00001293,-0.00001003,-0.00001431,0.00000037,0.00000371,-0.00
 000313,-0.00000228,0.00000125,0.00000336,-0.00000303,0.00000309,-0.000
 00078,-0.00000237,0.00000039,-0.00000169,0.00000061,0.00000160,-0.0000
 0548,-0.00000681,0.00001357,-0.00000082,-0.00000024,0.00000067,0.00000
 013,0.00000377,-0.00000070,0.00000122,0.00000271,-0.00000218,-0.000003
 30,-0.00001244,-0.00000092,-0.00000981,0.00000230,-0.00000056,-0.00000
 008,0.00000346,0.00000208,0.00000337,0.00000135,-0.00000110,0.00000039
 ,0.00000094,-0.00000132,0.00000361,-0.00000041,-0.00000162,0.00000313,
 -0.00000050,-0.00000242,0.00000306,-0.00000124,-0.00000165,0.00000424,
 -0.00000076,-0.00000032,0.00000338,0.00000291,0.00000019,-0.00000121,0
 .00000135,-0.00000183,0.00000156\\\@


 THE VALUE OF PHILOSOPHY IS, IN FACT, TO BE SOUGHT LARGELY IN ITS
 VERY UNCERTAINTY.  THE MAN WHO HAS NO TINCTURE OF PHILOSOPHY GOES
 THROUGH LIFE IMPRISONED IN THE PREJUDICES DERIVED FROM COMMON SENSE,
 FROM THE HABITUAL BELIEFS OF HIS AGE OR HIS NATION, AND FROM
 CONVICTIONS WHICH HAVE GROWN UP IN HIS MIND WITHOUT THE CO-OPERATION
 OR CONSENT OF HIS DELIBERATE REASON.  TO SUCH A MAN THE WORLD TENDS
 TO BE DEFINITE, FINITE, OBVIOUS; COMMON OBJECTS ROUSE NO QUESTIONS,
 AND UNFAMILIAR POSSIBILITIES ARE CONTEMPTUOUSLY REJECTED.

                             -- BERTRAND RUSSELL
 Job cpu time:       0 days  3 hours 41 minutes 23.5 seconds.
 Elapsed time:       0 days  0 hours 13 minutes 50.4 seconds.
 File lengths (MBytes):  RWF=    691 Int=      0 D2E=      0 Chk=     35 Scr=      1
 Normal termination of Gaussian 16 at Tue Jul 16 01:44:19 2024.
